98
 energy: -145.273687509289 gnorm: 0.000843843041 xtb: 6.6.1 (8d0f1dd)
P            1.75436599085160        0.50323510814702       -0.16923964409342
P           -1.10053521624240        1.33324689205862        1.60382085722839
N            1.65026526848590       -1.14626794789576       -0.55235378819239
N           -1.90894567947842        0.07740395348651        0.80643278917733
C           -0.55738728554994       -2.12270089315717       -0.38671734915853
C           -1.05675965780349       -0.99998129298307       -1.20816103408361
C           -1.42666577861372       -3.13440585040662        0.09286276061298
C           -0.81033679924899       -0.96285856066786       -2.60468762167025
C            0.78432664407778       -2.15206450964727       -0.07232767161975
C           -1.69523702917958        0.05153598352867       -0.59233648068751
C           -0.89272171027822       -4.19302792739022        0.87357969505259
C           -1.19872422187563        0.18461888902067       -3.34592036679052
C            1.31046875087003       -3.22726854511872        0.67365744983689
C           -2.10988228728291        1.17716682960640       -1.33853948099680
C            0.49317711241156       -4.21748829235435        1.13430477892776
C           -1.86475993208200        1.23819100414048       -2.68359557250564
C           -2.80822684285707       -3.13000380942317       -0.19684159179217
C           -0.16626327792090       -2.02196274101832       -3.27808364119647
C           -1.76032443003040       -5.19572144304818        1.35190766082731
C           -0.91070336534665        0.23820807915093       -4.72542165891706
C           -3.62153612020242       -4.11953411283940        0.28046387036233
C            0.09959071414162       -1.93782376428489       -4.61694587283902
C           -3.09617272666272       -5.15821111115708        1.06456848152989
C           -0.27088000466758       -0.79801651747676       -5.34688946859412
C            3.00635081957497        0.83253187355703       -1.46118816353869
C            2.75650778265075        0.59367828577984        1.37032514299012
C           -2.47167682418889        2.36104870293403        2.23104694679154
C           -0.49849753580310        0.49454783317115        3.11008186500689
C            2.63442475752249        0.57164934089205       -2.77716185331858
C            3.66808226561844       -0.39383868285352        1.72786067460790
C           -3.79280343550599        2.07585697245604        1.90853628763791
C           -0.78985716829316        0.91094610731448        4.40338210276975
C            4.27064714410106        1.34171882501550       -1.19064431321308
C            2.56130341023062        1.67592641877966        2.22242570420115
C           -2.18251999326219        3.47847079271327        3.01136492868069
C            0.32720458535247       -0.61011260234369        2.92316627770216
C            3.52197064918758        0.80639591440446       -3.81022768712719
C            4.35446914202502       -0.30748133211942        2.92541863058921
C           -4.81014321777949        2.89639719306260        2.36423275959016
C           -0.25711130134429        0.22906022899878        5.48425624562160
C            5.15750578006219        1.57278517974921       -2.22894129447147
C            3.25209377436585        1.76584068265400        3.41569910334474
C           -3.20094106860134        4.29386757409280        3.46786193326380
C            0.85398067537976       -1.29121536994817        4.00162681947856
C            4.78521444510507        1.30776830393199       -3.53642734303057
C            4.14303522766189        0.76708319718287        3.77380326903306
C           -4.51683407217236        4.00524187578749        3.14051318817470
C            0.56724431245178       -0.86603324261863        5.28882455394253
Rh           0.24514385554089        2.29671169729777       -0.00863360946148
H            2.58662248494424       -1.51563484220859       -0.70365043907204
H           -1.81351650721869       -0.83918105044979        1.23646463366688
H            2.37126340214049       -3.25356617382133        0.87874215468667
H           -2.70696729244249        1.92852123725397       -0.83896936998147
H            0.90039549916913       -5.03705819911109        1.70703015589581
H           -2.20090243255318        2.08549987931492       -3.26324894198883
H           -3.21050390436434       -2.33467474078129       -0.80751505092276
H            0.11214647350058       -2.90249232638195       -2.71869414414902
H           -1.34656886661846       -5.99666995239770        1.94655240763934
H           -1.20925886155149        1.11420311916757       -5.28303915715867
H           -4.67667519473605       -4.10947047311894        0.05327133608866
H            0.59377991715613       -2.75308894213839       -5.12316789742620
H           -3.75470169553766       -5.92994260538529        1.43244936014731
H           -0.05386982529517       -0.75014918789683       -6.40313283934816
H            1.64958925808666        0.17267564266767       -2.97854828085010
H            3.85375829804065       -1.23096962229716        1.07064210359108
H           -4.01842531059613        1.20711393781566        1.30759189582597
H           -1.44276043004729        1.75279592558827        4.57450140761074
H            4.56326160474006        1.55383504720009       -0.17112213637415
H            1.85406454686031        2.45546354455268        1.93570129525743
H           -1.15430823035023        3.69525344486577        3.27149430646339
H            0.55025094465879       -0.93954147520178        1.91788965923813
H            3.22852262981357        0.59857903409902       -4.82807519546401
H            5.05776068322992       -1.08003212667848        3.19737764106678
H           -5.83500589306463        2.66914774586693        2.11265966383286
H           -0.49127459902734        0.55586620305282        6.48600049756398
H            6.14185680888867        1.96063472388074       -2.01444739863338
H            3.09465155964973        2.60998049168767        4.07032706593430
H           -2.97118526569469        5.15444744165428        4.07800664021299
H            1.48707735301639       -2.14962192058465        3.83636384248877
H            5.47977278319594        1.49119766124410       -4.34155262153676
H            4.67582007471254        0.82816487798610        4.71017043308160
H           -5.31158322836244        4.64432347099684        3.49281774048177
H            0.98047435220203       -1.39015143314732        6.13655301320427
C            0.47347687500380        5.61913918678180       -1.39727771463905
C            1.23219108155861        4.91021118880261       -0.26355199352401
C           -0.39547896292341        4.39045905114056       -1.71403076994801
H            1.11897741285925        5.91275571467797       -2.22427550914788
H           -0.10518675307677        6.47660250452749       -1.05536399191869
C            0.06870005723415        4.38317432507255        0.56849460692171
C            1.67866327833807        3.63836349101897       -0.97612867679674
H            1.99939940451493        5.46881477500505        0.26434554610052
C           -0.94217649139472        4.06874147611160       -0.32250563779959
C            0.68076645125446        3.31710662406977       -1.87172114094858
H           -1.12203402876189        4.47743239643354       -2.51560327182364
H           -0.03882176549684        4.59207554169178        1.62312521180402
H            2.70865439329604        3.31427552265117       -1.00021972151283
H           -1.99767608075302        4.02521297584796       -0.09328463709363
H            0.76731698647089        2.67318216871134       -2.73666455050282
