      -----------------------------------------------------------      
     |                   =====================                   |     
     |                           x T B                           |     
     |                   =====================                   |     
     |                         S. Grimme                         |     
     |          Mulliken Center for Theoretical Chemistry        |     
     |                    University of Bonn                     |     
      -----------------------------------------------------------      

   * xtb version 6.6.1 (8d0f1dd) compiled by 'stahn@M-Bot' on 2023-08-01

   xtb is free software: you can redistribute it and/or modify it under
   the terms of the GNU Lesser General Public License as published by
   the Free Software Foundation, either version 3 of the License, or
   (at your option) any later version.
   
   xtb is distributed in the hope that it will be useful,
   but WITHOUT ANY WARRANTY; without even the implied warranty of
   MERCHANTABILITY or FITNESS FOR A PARTICULAR PURPOSE.  See the
   GNU Lesser General Public License for more details.
   
   Cite this work as:
   * C. Bannwarth, E. Caldeweyher, S. Ehlert, A. Hansen, P. Pracht,
     J. Seibert, S. Spicher, S. Grimme, WIREs Comput. Mol. Sci., 2020, 11,
     e01493. DOI: 10.1002/wcms.1493
   
   for GFN2-xTB:
   * C. Bannwarth, S. Ehlert and S. Grimme., J. Chem. Theory Comput., 2019,
     15, 1652-1671. DOI: 10.1021/acs.jctc.8b01176
   for GFN1-xTB:
   * S. Grimme, C. Bannwarth, P. Shushkov, J. Chem. Theory Comput., 2017,
     13, 1989-2009. DOI: 10.1021/acs.jctc.7b00118
   for GFN0-xTB:
   * P. Pracht, E. Caldeweyher, S. Ehlert, S. Grimme, ChemRxiv, 2019, preprint.
     DOI: 10.26434/chemrxiv.8326202.v1
   for GFN-FF:
   * S. Spicher and S. Grimme, Angew. Chem. Int. Ed., 2020, 59, 15665-15673.
     DOI: 10.1002/anie.202004239
   
   for ALPB and GBSA implicit solvation:
   * S. Ehlert, M. Stahn, S. Spicher, S. Grimme, J. Chem. Theory Comput.,
     2021, 17, 4250-4261. DOI: 10.1021/acs.jctc.1c00471
   
   for DFT-D4:
   * E. Caldeweyher, C. Bannwarth and S. Grimme, J. Chem. Phys., 2017,
     147, 034112. DOI: 10.1063/1.4993215
   * E. Caldeweyher, S. Ehlert, A. Hansen, H. Neugebauer, S. Spicher,
     C. Bannwarth and S. Grimme, J. Chem. Phys., 2019, 150, 154122.
     DOI: 10.1063/1.5090222
   * E. Caldeweyher, J.-M. Mewes, S. Ehlert and S. Grimme, Phys. Chem. Chem. Phys.
     2020, 22, 8499-8512. DOI: 10.1039/D0CP00502A
   
   for sTDA-xTB:
   * S. Grimme and C. Bannwarth, J. Chem. Phys., 2016, 145, 054103.
     DOI: 10.1063/1.4959605
   
   in the mass-spec context:
   * V. Asgeirsson, C. Bauer and S. Grimme, Chem. Sci., 2017, 8, 4879.
     DOI: 10.1039/c7sc00601b
   * J. Koopman and S. Grimme, ACS Omega 2019, 4, 12, 15120-15133.
     DOI: 10.1021/acsomega.9b02011
   
   for metadynamics refer to:
   * S. Grimme, J. Chem. Theory Comput., 2019, 155, 2847-2862
     DOI: 10.1021/acs.jctc.9b00143
   
   for SPH calculations refer to:
   * S. Spicher and S. Grimme, J. Chem. Theory Comput., 2021, 17, 1701-1714
     DOI: 10.1021/acs.jctc.0c01306
   
   with help from (in alphabetical order)
   P. Atkinson, C. Bannwarth, F. Bohle, G. Brandenburg, E. Caldeweyher
   M. Checinski, S. Dohm, S. Ehlert, S. Ehrlich, I. Gerasimov, C. Hölzer
   A. Katbashev, J. Koopman, C. Lavigne, S. Lehtola, F. März, M. Müller,
   F. Musil, H. Neugebauer, J. Pisarek, C. Plett, P. Pracht, F. Pultar,
   J. Seibert, P. Shushkov, S. Spicher, M. Stahn, M. Steiner, T. Strunk,
   J. Stückrath, T. Rose, and J. Unsleber
   
 * started run on 2024/02/05 at 14:11:05.859     

           -------------------------------------------------
          |                Calculation Setup                |
           -------------------------------------------------

          program call               : xtb tmpcoord --gff --opt
          hostname                   : cmp073
          coordinate file            : tmpcoord
          omp threads                :                     1

   ID    Z sym.   atoms
    1   15 p      1, 2
    2    6 c      3-9, 16-21, 23-28, 31-35, 45, 46, 48, 50, 53, 54, 56, 58,
                  61, 65, 73-75, 78, 79, 81, 82
    3    1 h      10-13, 15, 22, 29, 36-44, 49, 51, 52, 57, 59, 60, 62-64,
                  66-72, 76, 77, 80, 83-87
    4   45 rh     14
    5   26 fe     30
    6    8 o      47, 55
          charge from .CHRG file: 1
 
          ==================== Thresholds ====================
          CN  :   150.00000
          rep :   500.00000
          disp:  2500.00000
          HB1 :   250.00000
          HB2 :   450.00000
 
          Pauling EN used:
          Z : 1  EN :  2.20
          Z : 6  EN :  2.55
          Z : 8  EN :  3.44
          Z :15  EN :  2.19
          Z :26  EN :  1.83
          Z :45  EN :  2.28
          electric field strengths (au): 0.000
 
           ------------------------------------------------- 
          |           Force Field Initialization            |
           ------------------------------------------------- 
 
          distances ...
          ----------------------------------------
          generating topology and atomic info file ...
          pair mat ...
          computing topology distances matrix with Floyd-Warshall algo ...
          making topology EEQ charges ...
          #fragments for EEQ constrain: 1
          ----------------------------------------
          generating topology and atomic info file ...
          pair mat ...
          computing topology distances matrix with Floyd-Warshall algo ...
          making topology EEQ charges ...
          #fragments for EEQ constrain: 1
          rings ...
          # BATM   968
          # H in HB   26
          doing iterative Hueckel for 8 subsystem(s) ...
 
  atom   neighbors  erfCN metchar sp-hybrid imet pi  qest     coordinates
    1  p       4    3.71   0.02         3    0    0   0.021    1.948385    2.029134    0.672971
    2  p       4    3.83   0.02         3    0    0  -0.007   -2.664814   -1.925614    0.047713
    3  c       4    3.49   0.00         3    0    0  -0.031    0.199592   -3.631274   -1.168724
    4  c       4    3.50   0.00         3    0    0  -0.065   -0.087654   -6.355881   -2.045717
    5  c       3    3.53   0.00         2    0    1  -0.040    3.312370   -0.959908    1.478624
    6  c       3    3.63   0.00         2    0    1  -0.030    2.246555   -3.346085    0.752472
    7  c       3    3.53   0.00         2    0    1  -0.052    3.724838   -5.264926    1.879954
    8  c       3    3.53   0.00         2    0    1  -0.048    5.713333   -4.103813    3.230840
    9  c       3    3.54   0.00         2    0    1  -0.050    5.487988   -1.466417    2.979677
   10  h       1    0.98   0.01         0    0    0   0.044    0.780868   -2.486307   -2.797777
   11  h       1    0.97   0.00         0    0    0   0.052    1.631132   -6.898503   -3.033315
   12  h       1    0.97   0.00         0    0    0   0.052   -1.684622   -6.572626   -3.320807
   13  h       1    0.97   0.00         0    0    0   0.052   -0.327854   -7.634404   -0.466684
   14  rh      6    4.21   0.00         0    2    0   0.296   -2.227457    2.349868   -0.181502
   15  h       1    0.98   0.00         0    0    0   0.053    6.715465   -0.080244    3.803885
   16  c       3    2.81   0.00         2    0    1  -0.022   -2.878824   -3.822809    8.544303
   17  c       3    2.82   0.00         2    0    1  -0.031   -3.436078   -5.744474    6.871040
   18  c       3    2.83   0.00         2    0    1  -0.008   -3.484910   -5.363508    4.266504
   19  c       3    2.81   0.00         2    0    1  -0.020   -2.943439   -2.947741    3.338354
   20  c       3    2.94   0.00         2    0    1  -0.029   -2.414750   -1.007547    5.056132
   21  c       3    2.81   0.00         2    0    1  -0.029   -2.376441   -1.421972    7.628089
   22  h       1    0.97   0.00         0    0    0   0.053   -2.036242    0.887250    4.335386
   23  c       3    2.81   0.00         2    0    1  -0.022   -9.773962   -4.268529   -4.356571
   24  c       3    2.81   0.00         2    0    1  -0.029   -9.738072   -4.411943   -1.743342
   25  c       3    2.88   0.00         2    0    1  -0.029   -7.569597   -3.761394   -0.444386
   26  c       3    2.82   0.00         2    0    1  -0.020   -5.404912   -2.993193   -1.734798
   27  c       3    2.87   0.00         2    0    1  -0.008   -5.482343   -2.699736   -4.366261
   28  c       3    2.82   0.00         2    0    1  -0.031   -7.672848   -3.388982   -5.639695
   29  h       1    0.97   0.00         0    0    0   0.053   -7.544466   -3.839379    1.595687
   30  fe     10    4.40   0.00         0    2    0   0.259    5.843964   -3.087678   -0.515618
   31  c       3    3.53   0.00         2    0    1  -0.050    8.178372   -5.482254   -2.516262
   32  c       3    3.53   0.00         2    0    1  -0.050    9.554784   -3.359077   -1.668213
   33  c       3    3.53   0.00         2    0    1  -0.050    8.438766   -1.181876   -2.720859
   34  c       3    3.52   0.00         2    0    1  -0.050    6.382565   -1.959567   -4.239680
   35  c       3    3.52   0.00         2    0    1  -0.050    6.230367   -4.614887   -4.118167
   36  h       1    0.98   0.00         0    0    0   0.055    8.583148   -7.421124   -2.074432
   37  h       1    0.98   0.00         0    0    0   0.055    9.088680    0.721189   -2.474849
   38  h       1    0.98   0.00         0    0    0   0.055    5.223581   -0.764381   -5.398488
   39  h       1    0.98   0.00         0    0    0   0.055    4.936057   -5.781526   -5.157473
   40  h       1    0.97   0.00         0    0    0   0.057   -2.851466   -4.188884   10.549796
   41  h       1    0.97   0.00         0    0    0   0.057  -11.450290   -4.794803   -5.390339
   42  h       1    0.98   0.00         0    0    0   0.054    7.156154   -5.073769    4.273065
   43  h       1    0.98   0.00         0    0    0   0.055    3.430534   -7.264703    1.737738
   44  h       1    0.98   0.00         0    0    0   0.055   11.180841   -3.398205   -0.455544
   45  c       3    3.02   0.00         2    0    1   0.083    3.471814    3.121209   -2.161330
   46  c       3    2.90   0.00         2    0    1  -0.028    5.632621    4.337995   -2.876818
   47  o       2    2.02   0.00         3    0    1  -0.335    1.934567    2.793203   -4.193793
   48  c       3    2.90   0.00         2    0    1  -0.024    5.411896    4.745581   -5.506960
   49  h       1    0.98   0.00         0    0    0   0.062    7.164249    4.884716   -1.675517
   50  c       3    3.02   0.00         2    0    1   0.074    3.132775    3.768945   -6.198825
   51  h       1    0.98   0.00         0    0    0   0.063    6.764985    5.645738   -6.710706
   52  h       1    0.98   0.00         0    0    0   0.061    2.199087    3.668524   -7.994985
   53  c       3    3.02   0.00         2    0    1   0.083    3.308915    4.082423    3.010785
   54  c       3    2.92   0.00         2    0    1  -0.028    3.635791    3.868123    5.571486
   55  o       2    1.98   0.00         3    0    1  -0.335    3.875399    6.461467    2.256151
   56  c       3    2.89   0.00         2    0    1  -0.024    4.518924    6.244417    6.404901
   57  h       1    0.98   0.00         0    0    0   0.062    3.306299    2.215121    6.692421
   58  c       3    3.03   0.00         2    0    1   0.074    4.623722    7.738247    4.310356
   59  h       1    0.98   0.00         0    0    0   0.063    5.007361    6.766213    8.296607
   60  h       1    0.98   0.00         0    0    0   0.061    5.193199    9.665535    4.053250
   61  c       4    3.49   0.00         3    0    0  -0.064   -4.165344   -7.584175    2.650548
   62  h       1    0.97   0.00         0    0    0   0.055   -5.992244   -8.333402    3.235650
   63  h       1    0.97   0.00         0    0    0   0.055   -4.273706   -7.093734    0.664418
   64  h       1    0.97   0.00         0    0    0   0.055   -2.788117   -9.092152    2.912651
   65  c       4    3.49   0.00         3    0    0  -0.064   -3.313512   -1.588417   -5.808270
   66  h       1    0.97   0.00         0    0    0   0.055   -1.907227   -3.021079   -6.261609
   67  h       1    0.97   0.00         0    0    0   0.055   -3.980989   -0.790984   -7.582134
   68  h       1    0.97   0.01         0    0    0   0.055   -2.399404   -0.084441   -4.708526
   69  h       1    0.97   0.00         0    0    0   0.057   -7.737873   -3.204828   -7.671908
   70  h       1    0.97   0.00         0    0    0   0.057  -11.394548   -5.020598   -0.722525
   71  h       1    0.97   0.00         0    0    0   0.057   -3.852653   -7.611532    7.583857
   72  h       1    0.97   0.00         0    0    0   0.057   -1.966106    0.109917    8.910160
   73  c       4    3.55   0.00         3    0    0  -0.040   -6.595294    7.548984   -0.618098
   74  c       4    3.65   0.00         3    0    0  -0.002   -5.023197    6.107409   -2.593538
   75  c       4    3.66   0.00         3    0    0  -0.002   -5.593832    5.957922    1.599779
   76  h       1    0.97   0.00         0    0    0   0.052   -8.625448    7.355874   -0.900949
   77  h       1    0.97   0.00         0    0    0   0.052   -6.093954    9.541127   -0.477674
   78  c       3    3.49   0.00         2    0    1  -0.071   -2.397599    6.298410   -1.407391
   79  c       3    3.50   0.00         2    0    1  -0.071   -5.774119    3.388585   -1.968978
   80  h       1    0.97   0.00         0    0    0   0.048   -5.188852    6.678549   -4.557778
   81  c       3    3.50   0.00         2    0    1  -0.071   -2.749735    6.211106    1.165131
   82  c       3    3.50   0.00         2    0    1  -0.071   -6.132472    3.298142    0.609492
   83  h       1    0.97   0.00         0    0    0   0.048   -6.278079    6.394672    3.484725
   84  h       1    0.97   0.00         0    0    0   0.053   -0.757623    7.004210   -2.400671
   85  h       1    0.97   0.00         0    0    0   0.053   -6.538860    2.092970   -3.350480
   86  h       1    0.97   0.00         0    0    0   0.053   -1.446770    6.823657    2.616049
   87  h       1    0.97   0.00         0    0    0   0.053   -7.189836    1.896727    1.657520
 
          #atoms :   87
          #bonds :   106
          #angl  :   173
          #tors  :   270
          #nmol  :   1
          #optfrag :   1
           ------------------------------------------------- 
          |                   G F N - F F                   |
          |          A general generic force-field          |
          |                  Version 1.0.3                  | 
           ------------------------------------------------- 
          Number of HB bonds (bound hydrogen)     9245
          Number of HB bonds (unbound hydrogen)   787
          Number of XB bonds                      152

 E+G (total)                   0 d,  0 h,  0 min,  0.003 sec
 distance/D3 list               ...        0 min,  0.000 sec (  0.507%)
 non bonded repulsion           ...        0 min,  0.000 sec (  8.066%)
 dCN                            ...        0 min,  0.000 sec (  4.544%)
 EEQ energy and q               ...        0 min,  0.000 sec (  4.923%)
 D3                             ...        0 min,  0.000 sec ( 12.648%)
 EEQ gradient                   ...        0 min,  0.000 sec (  2.666%)
 bonds                          ...        0 min,  0.000 sec (  4.764%)
 bend and torsion               ...        0 min,  0.000 sec (  4.196%)
 bonded ATM                     ...        0 min,  0.000 sec (  4.514%)
 HB/XB (incl list setup)        ...        0 min,  0.002 sec ( 52.696%)

         :::::::::::::::::::::::::::::::::::::::::::::::::::::
         ::                     SUMMARY                     ::
         :::::::::::::::::::::::::::::::::::::::::::::::::::::
         :: total energy             -15.429600621978 Eh    ::
         :: gradient norm              0.138029654053 Eh/a0 ::
         ::.................................................::
         :: bond energy              -17.743384194918 Eh    ::
         :: angle energy               0.110210237334 Eh    ::
         :: torsion energy             0.025885854151 Eh    ::
         :: repulsion energy           1.192917582834 Eh    ::
         :: electrostat energy         1.133722023568 Eh    ::
         :: dispersion energy         -0.131665370555 Eh    ::
         :: HB energy                 -0.001893341324 Eh    ::
         :: XB energy                 -0.006186723481 Eh    ::
         :: bonded atm energy         -0.009206689587 Eh    ::
         :: external energy            0.000000000000 Eh    ::
         :: add. restraining           0.000000000000 Eh    ::
         :: total charge               1.000000000000 e     ::
         :::::::::::::::::::::::::::::::::::::::::::::::::::::

      ----------------------------------------------------------- 
     |                   =====================                   |
     |                        A N C O P T                        |
     |                   =====================                   |
     |               Approximate Normal Coordinate               |
     |                Rational Function Optimizer                |
      ----------------------------------------------------------- 

          ...................................................
          :                      SETUP                      :
          :.................................................:
          :   optimization level            normal          :
          :   max. optcycles                   261          :
          :   ANC micro-cycles                  20          :
          :   degrees of freedom               255          :
          :.................................................:
          :   RF solver                   davidson          :
          :   write xtbopt.log                true          :
          :   linear?                        false          :
          :   energy convergence         0.5000000E-05 Eh   :
          :   grad. convergence          0.1000000E-02 Eh/α :
          :   maxmium RF displ.          1.0000000          :
          :   Hlow (freq-cutoff)         0.1000000E-01      :
          :   Hmax (freq-cutoff)         5.0000000          :
          :   S6 in model hess.         20.0000000          :
          ...................................................

generating ANC from model Hessian ...
Using GFN-FF Lindh-Hessian
 Shifting diagonal of input Hessian by   9.991790424472702E-003
 Lowest  eigenvalues of input Hessian
    0.000000    0.000000    0.000000    0.000000    0.000000    0.000000
    0.010000    0.010004    0.010020    0.010025    0.010029    0.010042
    0.010078    0.010105    0.010133    0.010229    0.010249    0.010359
 Highest eigenvalues
    2.704791    2.709530    2.736233    2.741507    2.764588    2.772757
 

........................................................................
.............................. CYCLE    1 ..............................
........................................................................
     iter. time                 ...        0 min,  0.002 sec
 * total energy  :   -15.4296006 Eh     change        0.0000000E+00 Eh
   gradient norm :     0.1380297 Eh/α   predicted     0.0000000E+00 (    NaN%)
   displ. norm   :     0.4191915 α      lambda       -0.4029500E-01
   maximum displ.:     0.1380665 α      in ANC's #38, #39, #50, ...

........................................................................
.............................. CYCLE    2 ..............................
........................................................................
     iter. time                 ...        0 min,  0.002 sec
 * total energy  :   -15.4582869 Eh     change       -0.2868626E-01 Eh
   gradient norm :     0.0598007 Eh/α   predicted    -0.2369167E-01 ( -17.41%)
   displ. norm   :     0.4005652 α      lambda       -0.1490041E-01
   maximum displ.:     0.1783020 α      in ANC's #50, #38, #39, ...

........................................................................
.............................. CYCLE    3 ..............................
........................................................................
     iter. time                 ...        0 min,  0.002 sec
 * total energy  :   -15.4679842 Eh     change       -0.9697271E-02 Eh
   gradient norm :     0.0236789 Eh/α   predicted    -0.8645606E-02 ( -10.84%)
   displ. norm   :     0.3687451 α      lambda       -0.4337904E-02
   maximum displ.:     0.1853043 α      in ANC's #50, #26, #12, ...

........................................................................
.............................. CYCLE    4 ..............................
........................................................................
     iter. time                 ...        0 min,  0.002 sec
 * total energy  :   -15.4712910 Eh     change       -0.3306854E-02 Eh
   gradient norm :     0.0245169 Eh/α   predicted    -0.2463875E-02 ( -25.49%)
   displ. norm   :     0.4914078 α      lambda       -0.3860785E-02
   maximum displ.:     0.2468699 α      in ANC's #50, #26, #12, ...

........................................................................
.............................. CYCLE    5 ..............................
........................................................................
     iter. time                 ...        0 min,  0.002 sec
 * total energy  :   -15.4742639 Eh     change       -0.2972901E-02 Eh
   gradient norm :     0.0248339 Eh/α   predicted    -0.2396552E-02 ( -19.39%)
   displ. norm   :     0.5113137 α      lambda       -0.2959812E-02
   maximum displ.:     0.2376297 α      in ANC's #50, #26, #12, ...

........................................................................
.............................. CYCLE    6 ..............................
........................................................................
     iter. time                 ...        0 min,  0.002 sec
 * total energy  :   -15.4764976 Eh     change       -0.2233678E-02 Eh
   gradient norm :     0.0184591 Eh/α   predicted    -0.1866823E-02 ( -16.42%)
   displ. norm   :     0.4765719 α      lambda       -0.1890190E-02
   maximum displ.:     0.1751238 α      in ANC's #50, #12, #6, ...

........................................................................
.............................. CYCLE    7 ..............................
........................................................................
     iter. time                 ...        0 min,  0.002 sec
 * total energy  :   -15.4779035 Eh     change       -0.1405909E-02 Eh
   gradient norm :     0.0112890 Eh/α   predicted    -0.1159765E-02 ( -17.51%)
   displ. norm   :     0.4595727 α      lambda       -0.1220151E-02
   maximum displ.:     0.1675667 α      in ANC's #12, #6, #11, ...

........................................................................
.............................. CYCLE    8 ..............................
........................................................................
     iter. time                 ...        0 min,  0.002 sec
 * total energy  :   -15.4788428 Eh     change       -0.9392820E-03 Eh
   gradient norm :     0.0098585 Eh/α   predicted    -0.7389280E-03 ( -21.33%)
   displ. norm   :     0.4877513 α      lambda       -0.1002486E-02
   maximum displ.:     0.1835870 α      in ANC's #12, #6, #11, ...

........................................................................
.............................. CYCLE    9 ..............................
........................................................................
     iter. time                 ...        0 min,  0.002 sec
 * total energy  :   -15.4796304 Eh     change       -0.7876508E-03 Eh
   gradient norm :     0.0115941 Eh/α   predicted    -0.6205489E-03 ( -21.22%)
   displ. norm   :     0.5089024 α      lambda       -0.8707331E-03
   maximum displ.:     0.1874311 α      in ANC's #12, #6, #13, ...

........................................................................
.............................. CYCLE   10 ..............................
........................................................................
     iter. time                 ...        0 min,  0.002 sec
 * total energy  :   -15.4803193 Eh     change       -0.6888661E-03 Eh
   gradient norm :     0.0121829 Eh/α   predicted    -0.5481199E-03 ( -20.43%)
   displ. norm   :     0.5182225 α      lambda       -0.7727834E-03
   maximum displ.:     0.1830254 α      in ANC's #6, #12, #13, ...

........................................................................
.............................. CYCLE   11 ..............................
........................................................................
     iter. time                 ...        0 min,  0.002 sec
 * total energy  :   -15.4809392 Eh     change       -0.6199149E-03 Eh
   gradient norm :     0.0110829 Eh/α   predicted    -0.4901725E-03 ( -20.93%)
   displ. norm   :     0.5333885 α      lambda       -0.7405007E-03
   maximum displ.:     0.1922254 α      in ANC's #6, #12, #13, ...

........................................................................
.............................. CYCLE   12 ..............................
........................................................................
     iter. time                 ...        0 min,  0.002 sec
 * total energy  :   -15.4815361 Eh     change       -0.5968507E-03 Eh
   gradient norm :     0.0096291 Eh/α   predicted    -0.4755894E-03 ( -20.32%)
   displ. norm   :     0.5382798 α      lambda       -0.6997350E-03
   maximum displ.:     0.1938827 α      in ANC's #6, #13, #12, ...

........................................................................
.............................. CYCLE   13 ..............................
........................................................................
     iter. time                 ...        0 min,  0.002 sec
 * total energy  :   -15.4820913 Eh     change       -0.5552651E-03 Eh
   gradient norm :     0.0090172 Eh/α   predicted    -0.4512420E-03 ( -18.73%)
   displ. norm   :     0.5141955 α      lambda       -0.5924156E-03
   maximum displ.:     0.1808635 α      in ANC's #9, #6, #13, ...

........................................................................
.............................. CYCLE   14 ..............................
........................................................................
     iter. time                 ...        0 min,  0.002 sec
 * total energy  :   -15.4825507 Eh     change       -0.4593409E-03 Eh
   gradient norm :     0.0083525 Eh/α   predicted    -0.3745303E-03 ( -18.46%)
   displ. norm   :     0.4813125 α      lambda       -0.4568017E-03
   maximum displ.:     0.1902314 α      in ANC's #9, #6, #12, ...

........................................................................
.............................. CYCLE   15 ..............................
........................................................................
     iter. time                 ...        0 min,  0.002 sec
 * total energy  :   -15.4829036 Eh     change       -0.3529438E-03 Eh
   gradient norm :     0.0072378 Eh/α   predicted    -0.2813142E-03 ( -20.29%)
   displ. norm   :     0.4259712 α      lambda       -0.3915640E-03
   maximum displ.:     0.2009879 α      in ANC's #9, #3, #6, ...

........................................................................
.............................. CYCLE   16 ..............................
........................................................................
     iter. time                 ...        0 min,  0.002 sec
 * total energy  :   -15.4831819 Eh     change       -0.2782981E-03 Eh
   gradient norm :     0.0079126 Eh/α   predicted    -0.2313127E-03 ( -16.88%)
   displ. norm   :     0.5389717 α      lambda       -0.4389001E-03
   maximum displ.:     0.2385703 α      in ANC's #9, #12, #8, ...

........................................................................
.............................. CYCLE   17 ..............................
........................................................................
     iter. time                 ...        0 min,  0.002 sec
 * total energy  :   -15.4834025 Eh     change       -0.2205818E-03 Eh
   gradient norm :     0.0108223 Eh/α   predicted    -0.2831984E-03 (  28.39%)
   displ. norm   :     0.2646028 α      lambda       -0.3637758E-03
   maximum displ.:     0.1487627 α      in ANC's #9, #7, #8, ...

........................................................................
.............................. CYCLE   18 ..............................
........................................................................
     iter. time                 ...        0 min,  0.002 sec
 * total energy  :   -15.4836822 Eh     change       -0.2797252E-03 Eh
   gradient norm :     0.0079862 Eh/α   predicted    -0.1946273E-03 ( -30.42%)
   displ. norm   :     0.4108138 α      lambda       -0.4032796E-03
   maximum displ.:     0.2320994 α      in ANC's #9, #8, #7, ...

........................................................................
.............................. CYCLE   19 ..............................
........................................................................
     iter. time                 ...        0 min,  0.002 sec
 * total energy  :   -15.4839945 Eh     change       -0.3123354E-03 Eh
   gradient norm :     0.0067666 Eh/α   predicted    -0.2356709E-03 ( -24.55%)
   displ. norm   :     0.4634147 α      lambda       -0.3611130E-03
   maximum displ.:     0.2588936 α      in ANC's #9, #8, #7, ...

........................................................................
.............................. CYCLE   20 ..............................
........................................................................
     iter. time                 ...        0 min,  0.002 sec
 * total energy  :   -15.4842786 Eh     change       -0.2840842E-03 Eh
   gradient norm :     0.0069216 Eh/α   predicted    -0.2193333E-03 ( -22.79%)
   displ. norm   :     0.4956794 α      lambda       -0.3379642E-03
   maximum displ.:     0.2701813 α      in ANC's #9, #8, #7, ...
 * RMSD in coord.:     0.7671078 α      energy gain  -0.5467801E-01 Eh

generating ANC from model Hessian ...
Using GFN-FF Lindh-Hessian
 Shifting diagonal of input Hessian by   9.995313134353676E-003
 Lowest  eigenvalues of input Hessian
    0.000000    0.000000    0.000000    0.000000    0.000000    0.000000
    0.010000    0.010007    0.010022    0.010024    0.010029    0.010030
    0.010057    0.010064    0.010083    0.010146    0.010185    0.010294
 Highest eigenvalues
    2.632241    2.638167    2.802073    2.808886    2.833939    2.839966
 

........................................................................
.............................. CYCLE   21 ..............................
........................................................................
     iter. time                 ...        0 min,  0.002 sec
 * total energy  :   -15.4845471 Eh     change       -0.2684936E-03 Eh
   gradient norm :     0.0075486 Eh/α   predicted     0.0000000E+00 (-100.00%)
   displ. norm   :     0.0782205 α      lambda       -0.1743628E-03
   maximum displ.:     0.0466609 α      in ANC's #7, #14, #9, ...

........................................................................
.............................. CYCLE   22 ..............................
........................................................................
     iter. time                 ...        0 min,  0.002 sec
 * total energy  :   -15.4846952 Eh     change       -0.1481228E-03 Eh
   gradient norm :     0.0046763 Eh/α   predicted    -0.8781949E-04 ( -40.71%)
   displ. norm   :     0.2541972 α      lambda       -0.3644763E-03
   maximum displ.:     0.1473488 α      in ANC's #7, #9, #14, ...

........................................................................
.............................. CYCLE   23 ..............................
........................................................................
     iter. time                 ...        0 min,  0.002 sec
 * total energy  :   -15.4849446 Eh     change       -0.2493630E-03 Eh
   gradient norm :     0.0037712 Eh/α   predicted    -0.1940181E-03 ( -22.19%)
   displ. norm   :     0.2378848 α      lambda       -0.1740821E-03
   maximum displ.:     0.1410132 α      in ANC's #7, #9, #8, ...

........................................................................
.............................. CYCLE   24 ..............................
........................................................................
     iter. time                 ...        0 min,  0.002 sec
 * total energy  :   -15.4850843 Eh     change       -0.1396522E-03 Eh
   gradient norm :     0.0053278 Eh/α   predicted    -0.9196691E-04 ( -34.15%)
   displ. norm   :     0.3072258 α      lambda       -0.1995512E-03
   maximum displ.:     0.1788770 α      in ANC's #7, #9, #8, ...

........................................................................
.............................. CYCLE   25 ..............................
........................................................................
     iter. time                 ...        0 min,  0.002 sec
 * total energy  :   -15.4852510 Eh     change       -0.1667825E-03 Eh
   gradient norm :     0.0054300 Eh/α   predicted    -0.1091937E-03 ( -34.53%)
   displ. norm   :     0.3684199 α      lambda       -0.2295494E-03
   maximum displ.:     0.2122028 α      in ANC's #7, #9, #8, ...

........................................................................
.............................. CYCLE   26 ..............................
........................................................................
     iter. time                 ...        0 min,  0.002 sec
 * total energy  :   -15.4854352 Eh     change       -0.1841356E-03 Eh
   gradient norm :     0.0051608 Eh/α   predicted    -0.1303551E-03 ( -29.21%)
   displ. norm   :     0.3615807 α      lambda       -0.2127325E-03
   maximum displ.:     0.2086177 α      in ANC's #7, #9, #5, ...

........................................................................
.............................. CYCLE   27 ..............................
........................................................................
     iter. time                 ...        0 min,  0.002 sec
 * total energy  :   -15.4856001 Eh     change       -0.1648874E-03 Eh
   gradient norm :     0.0056145 Eh/α   predicted    -0.1202729E-03 ( -27.06%)
   displ. norm   :     0.3403803 α      lambda       -0.2043265E-03
   maximum displ.:     0.1988881 α      in ANC's #7, #9, #5, ...

........................................................................
.............................. CYCLE   28 ..............................
........................................................................
     iter. time                 ...        0 min,  0.002 sec
 * total energy  :   -15.4857568 Eh     change       -0.1567498E-03 Eh
   gradient norm :     0.0059740 Eh/α   predicted    -0.1140009E-03 ( -27.27%)
   displ. norm   :     0.3271914 α      lambda       -0.1991126E-03
   maximum displ.:     0.1967654 α      in ANC's #7, #9, #5, ...

........................................................................
.............................. CYCLE   29 ..............................
........................................................................
     iter. time                 ...        0 min,  0.002 sec
 * total energy  :   -15.4859089 Eh     change       -0.1521203E-03 Eh
   gradient norm :     0.0053991 Eh/α   predicted    -0.1102153E-03 ( -27.55%)
   displ. norm   :     0.3659079 α      lambda       -0.1834144E-03
   maximum displ.:     0.2304167 α      in ANC's #7, #9, #5, ...

........................................................................
.............................. CYCLE   30 ..............................
........................................................................
     iter. time                 ...        0 min,  0.002 sec
 * total energy  :   -15.4860509 Eh     change       -0.1419947E-03 Eh
   gradient norm :     0.0044268 Eh/α   predicted    -0.1039883E-03 ( -26.77%)
   displ. norm   :     0.3300347 α      lambda       -0.1593216E-03
   maximum displ.:     0.2138429 α      in ANC's #7, #5, #9, ...

........................................................................
.............................. CYCLE   31 ..............................
........................................................................
     iter. time                 ...        0 min,  0.002 sec
 * total energy  :   -15.4861719 Eh     change       -0.1209739E-03 Eh
   gradient norm :     0.0037262 Eh/α   predicted    -0.8833874E-04 ( -26.98%)
   displ. norm   :     0.3630316 α      lambda       -0.1226430E-03
   maximum displ.:     0.2424003 α      in ANC's #7, #5, #9, ...

........................................................................
.............................. CYCLE   32 ..............................
........................................................................
     iter. time                 ...        0 min,  0.002 sec
 * total energy  :   -15.4862607 Eh     change       -0.8877996E-04 Eh
   gradient norm :     0.0041740 Eh/α   predicted    -0.6940579E-04 ( -21.82%)
   displ. norm   :     0.2903774 α      lambda       -0.1067171E-03
   maximum displ.:     0.1853968 α      in ANC's #7, #5, #10, ...

........................................................................
.............................. CYCLE   33 ..............................
........................................................................
     iter. time                 ...        0 min,  0.002 sec
 * total energy  :   -15.4863194 Eh     change       -0.5875594E-04 Eh
   gradient norm :     0.0038742 Eh/α   predicted    -0.5785936E-04 (  -1.53%)
   displ. norm   :     0.2617066 α      lambda       -0.5789865E-04
   maximum displ.:     0.1789074 α      in ANC's #7, #5, #9, ...

........................................................................
.............................. CYCLE   34 ..............................
........................................................................
     iter. time                 ...        0 min,  0.002 sec
 * total energy  :   -15.4863536 Eh     change       -0.3412219E-04 Eh
   gradient norm :     0.0033230 Eh/α   predicted    -0.3093399E-04 (  -9.34%)
   displ. norm   :     0.0995155 α      lambda       -0.4334394E-04
   maximum displ.:     0.0524062 α      in ANC's #7, #10, #5, ...

........................................................................
.............................. CYCLE   35 ..............................
........................................................................
     iter. time                 ...        0 min,  0.002 sec
 * total energy  :   -15.4863874 Eh     change       -0.3382389E-04 Eh
   gradient norm :     0.0021385 Eh/α   predicted    -0.2189081E-04 ( -35.28%)
   displ. norm   :     0.1274979 α      lambda       -0.4477644E-04
   maximum displ.:     0.0545782 α      in ANC's #7, #10, #5, ...

........................................................................
.............................. CYCLE   36 ..............................
........................................................................
     iter. time                 ...        0 min,  0.002 sec
 * total energy  :   -15.4864159 Eh     change       -0.2850371E-04 Eh
   gradient norm :     0.0021974 Eh/α   predicted    -0.2275370E-04 ( -20.17%)
   displ. norm   :     0.0953246 α      lambda       -0.1437156E-04
   maximum displ.:     0.0517230 α      in ANC's #7, #5, #10, ...

........................................................................
.............................. CYCLE   37 ..............................
........................................................................
     iter. time                 ...        0 min,  0.002 sec
 * total energy  :   -15.4864269 Eh     change       -0.1104171E-04 Eh
   gradient norm :     0.0019557 Eh/α   predicted    -0.7253774E-05 ( -34.31%)
   displ. norm   :     0.1745280 α      lambda       -0.1698421E-04
   maximum displ.:     0.0884510 α      in ANC's #7, #5, #10, ...

........................................................................
.............................. CYCLE   38 ..............................
........................................................................
     iter. time                 ...        0 min,  0.002 sec
 * total energy  :   -15.4864408 Eh     change       -0.1387322E-04 Eh
   gradient norm :     0.0013234 Eh/α   predicted    -0.8608267E-05 ( -37.95%)
   displ. norm   :     0.0446611 α      lambda       -0.5899391E-05
   maximum displ.:     0.0236021 α      in ANC's #12, #7, #9, ...

........................................................................
.............................. CYCLE   39 ..............................
........................................................................
     iter. time                 ...        0 min,  0.002 sec
 * total energy  :   -15.4864480 Eh     change       -0.7166256E-05 Eh
   gradient norm :     0.0010554 Eh/α   predicted    -0.2955027E-05 ( -58.76%)
   displ. norm   :     0.0750120 α      lambda       -0.9337113E-05
   maximum displ.:     0.0436774 α      in ANC's #12, #14, #1, ...

........................................................................
.............................. CYCLE   40 ..............................
........................................................................
     iter. time                 ...        0 min,  0.002 sec
 * total energy  :   -15.4864574 Eh     change       -0.9401786E-05 Eh
   gradient norm :     0.0009730 Eh/α   predicted    -0.4681413E-05 ( -50.21%)
   displ. norm   :     0.0887892 α      lambda       -0.4826994E-05
   maximum displ.:     0.0432702 α      in ANC's #12, #5, #7, ...

........................................................................
.............................. CYCLE   41 ..............................
........................................................................
     iter. time                 ...        0 min,  0.002 sec
 * total energy  :   -15.4864625 Eh     change       -0.5138503E-05 Eh
   gradient norm :     0.0009097 Eh/α   predicted    -0.2425496E-05 ( -52.80%)
   displ. norm   :     0.0823279 α      lambda       -0.4813563E-05
   maximum displ.:     0.0439085 α      in ANC's #12, #1, #14, ...

........................................................................
.............................. CYCLE   42 ..............................
........................................................................
     iter. time                 ...        0 min,  0.002 sec
 * total energy  :   -15.4864677 Eh     change       -0.5219370E-05 Eh
   gradient norm :     0.0008538 Eh/α   predicted    -0.2415296E-05 ( -53.72%)
   displ. norm   :     0.0917673 α      lambda       -0.4723586E-05
   maximum displ.:     0.0478634 α      in ANC's #12, #1, #4, ...
 * RMSD in coord.:     0.4401383 α      energy gain  -0.2189102E-02 Eh

generating ANC from model Hessian ...
Using GFN-FF Lindh-Hessian
 Shifting diagonal of input Hessian by   9.994987009482313E-003
 Lowest  eigenvalues of input Hessian
    0.000000    0.000000    0.000000    0.000000    0.000000    0.000000
    0.010000    0.010009    0.010022    0.010025    0.010030    0.010032
    0.010060    0.010065    0.010085    0.010142    0.010184    0.010296
 Highest eigenvalues
    2.634179    2.641901    2.803919    2.812478    2.835301    2.842957
 

........................................................................
.............................. CYCLE   43 ..............................
........................................................................
     iter. time                 ...        0 min,  0.002 sec
 * total energy  :   -15.4864731 Eh     change       -0.5397298E-05 Eh
   gradient norm :     0.0007492 Eh/α   predicted     0.0000000E+00 (-100.00%)
   displ. norm   :     0.0134166 α      lambda       -0.1445884E-05
   maximum displ.:     0.0045988 α      in ANC's #12, #1, #3, ...

........................................................................
.............................. CYCLE   44 ..............................
........................................................................
     iter. time                 ...        0 min,  0.002 sec
 * total energy  :   -15.4864753 Eh     change       -0.2142888E-05 Eh
   gradient norm :     0.0004682 Eh/α   predicted    -0.8226592E-06 ( -61.61%)
   displ. norm   :     0.0542601 α      lambda       -0.4241909E-05
   maximum displ.:     0.0194275 α      in ANC's #12, #1, #3, ...

   *** GEOMETRY OPTIMIZATION CONVERGED AFTER 44 ITERATIONS ***

------------------------------------------------------------------------
 total energy gain   :        -0.0568747 Eh      -35.6894 kcal/mol
 total RMSD          :         1.0517340 a0        0.5566 Å
 total power (kW/mol):        -3.3937359 (step)-1084.5583 (real)
------------------------------------------------------------------------

 ANCopt (total)                0 d,  0 h,  0 min,  0.138 sec
 optimizer setup                ...        0 min,  0.001 sec (  0.717%)
 model hessian                  ...        0 min,  0.004 sec (  2.734%)
 ANC generation                 ...        0 min,  0.021 sec ( 15.010%)
 coordinate transformation      ...        0 min,  0.002 sec (  1.242%)
 single point calculation       ...        0 min,  0.097 sec ( 70.298%)
 optimization log               ...        0 min,  0.007 sec (  5.198%)
 hessian update                 ...        0 min,  0.001 sec (  0.982%)
 rational function              ...        0 min,  0.004 sec (  2.727%)

================
 final structure:
================
$coord
        1.76574035396589        1.73405385844210        0.57322905310429      p
       -2.41390690135394       -2.34230503852586       -0.19128990022688      p
        0.33618957632046       -4.16351976739914       -1.39445137782077      c
       -0.29197601662509       -6.93149893218129       -1.76697300309070      c
        3.38465349935265       -1.24381301371456        1.24653226514346      c
        2.54206779174637       -3.72009210955174        0.37089162581439      c
        4.17832806749658       -5.61378116133585        1.54145126669378      c
        6.00531054227253       -4.30862389676326        3.10995652248870      c
        5.51833751157247       -1.61937874425202        2.92221448661276      c
        0.80762376511868       -3.29609244911864       -3.21482150220587      h
        1.24844967374041       -7.93327009097060       -2.70560508444444      h
       -1.99452265590935       -7.17969050779680       -2.90408246340816      h
       -0.60212239637245       -7.85426194239069        0.04780711309439      h
       -2.35903869005734        2.03527952347195       -0.99041811899791      rh
        6.53573401460696       -0.12692355816001        3.91674713967658      h
       -2.89834353822932       -3.18568840424913        8.39958028242587      c
       -3.83376144069046       -5.11478131174878        6.91918548264197      c
       -3.74613763590658       -4.98562260700159        4.29704434890323      c
       -2.69512851976797       -2.84662841885456        3.18988163655353      c
       -1.72115674540810       -0.94539550702873        4.68048253479246      c
       -1.83151716496890       -1.09351180763718        7.28145780211947      c
       -0.82985788096762        0.65054584002962        3.78642012263603      h
       -9.98171981516549       -3.49149457703151       -4.20734279452795      c
       -9.82767718644024       -3.42754022024029       -1.61055815146386      c
       -7.50314689133085       -3.10940310486076       -0.46713103452101      c
       -5.33928684740996       -2.87590248712667       -1.90107311102552      c
       -5.47638461139040       -2.86677346927267       -4.52447834187317      c
       -7.82818382798983       -3.20984649971204       -5.64729822156513      c
       -7.37215721177660       -3.00364983923736        1.56280622470734      h
        6.33183509165612       -3.13190522595910       -0.64176316102552      fe
        9.00511327693480       -5.16368469361845       -2.76333429468103      c
       10.09665606507308       -2.82317455819948       -1.84340257782346      c
        8.59511219300919       -0.74865963304108       -2.81904333676129      c
        6.57653103651390       -1.81049177159723       -4.34053442798640      c
        6.82971105069402       -4.53784727102946       -4.30922572856208      c
        9.73344789165358       -7.06078758653193       -2.40805808145883      h
        8.92578048873036        1.25857945642629       -2.47744560514455      h
        5.06223578066480       -0.73698555729949       -5.23485457571317      h
        5.61572696580904       -5.88062039580349       -5.29867050913312      h
       -2.99132750545031       -3.32151020420770       10.42953528247359      h
      -11.78726355103651       -3.74857179337204       -5.11392378236544      h
        7.45807799194482       -5.19828555857347        4.27374522877948      h
        4.02052820259570       -7.65600131813332        1.31272102735054      h
       11.78764349423693       -2.65038959162678       -0.67420635846405      h
        3.10178512468011        3.03472466392092       -2.29218054616084      c
        4.84935120191554        4.94750651240365       -2.38366806809817      c
        2.47469067240896        2.28877859216173       -4.69007073218054      o
        5.32797420494396        5.42512660550313       -4.93103916647955      c
        5.62373118236518        5.92911814624604       -0.77534012468834      h
        3.84762237789468        3.77977728347134       -6.28820491064178      c
        6.59346239355535        6.83036249710463       -5.68721491263980      h
        3.75729940456675        3.65609926193833       -8.32985151987407      h
        2.55082329229027        3.92185996940557        3.09946985021845      c
        2.88535087143984        3.30531642941083        5.59760983711417      c
        2.92013944012547        6.46048083945175        2.77174112768841      o
        3.47600134141490        5.53429081188685        6.87168131604270      c
        2.76783107906188        1.44027304858650        6.40475234832595      h
        3.48093986635746        7.42490517342506        5.09496893446256      c
        3.86197887714517        5.73382808865962        8.86147527974551      h
        3.87693821615205        9.40333765177061        5.44555247757599      h
       -4.75768716123237       -7.15429480255586        2.81220476004449      c
       -6.72340881577595       -7.52495311176109        3.30658607022283      h
       -4.68259437061112       -6.79976416688995        0.78816310894509      h
       -3.68202085440902       -8.86860697039398        3.19770930232367      h
       -3.21175649784940       -2.47914046047321       -6.15649771440137      c
       -2.15759526491552       -4.23248301174927       -6.38914820736079      h
       -3.75658659963959       -1.83014229503484       -8.03453104729724      h
       -1.95002348306424       -1.05522883485442       -5.36978179697181      h
       -7.95961162202176       -3.23848092199236       -7.67689546208199      h
      -11.50854452687173       -3.62080315108079       -0.47803049240343      h
       -4.64804709109048       -6.76005220897084        7.79583949903780      h
       -1.09338779620159        0.41540531170511        8.43082353028021      h
       -6.32345811034365        7.57715688526744       -0.19120167666417      c
       -5.76426028449824        5.70420598772933       -2.47636345282968      c
       -4.45197550270971        6.07556599575907        1.61967745332380      c
       -8.28944311340564        7.52573486053495        0.44375315865291      h
       -5.71702266237943        9.51801316612261       -0.56084950710092      h
       -2.82088148392921        5.87579738921264       -2.52915813949451      c
       -6.36064693622104        3.14585290095344       -1.14503215748636      c
       -6.76260359514555        6.09031998855026       -4.26699786324774      h
       -2.04065476104670        6.11074578002442       -0.06726860312068      c
       -5.56295456179760        3.36207390608081        1.31878533594605      c
       -4.24626614950785        6.80046885735791        3.56480408209019      h
       -1.62054891995069        6.00234405691737       -4.20610737549995      h
       -7.40984770932708        1.56475655453066       -1.95687240423670      h
       -0.11733567232531        6.48952362958848        0.57002125467142      h
       -5.85146623777880        1.97802185499963        2.82418449889273      h
$eht charge=1 unpaired=1
$end
 
 Bond Distances (Angstroems)
 ---------------------------
P1-C5=1.8287         P1-Rh14=2.3397       P1-C45=1.8091        P1-C53=1.8166        P2-C3=1.8580         P2-Rh14=2.3550       
P2-C19=1.8151        P2-C26=1.8152        C3-P2=1.8580         C3-C4=1.5149         C3-C6=1.5134         C3-H10=1.0958        
C4-C3=1.5149         C4-H11=1.0919        C4-H12=1.0913        C4-H13=1.0898        C5-P1=1.8287         C5-C6=1.4597         
C5-C9=1.4494         C5-Fe30=2.1045       C6-C3=1.5134         C6-C5=1.4597         C6-C7=1.4621         C6-Fe30=2.0990       
C7-C6=1.4621         C7-C8=1.4494         C7-Fe30=2.0877       C7-H43=1.0907        C8-C7=1.4494         C8-C9=1.4496         
C8-Fe30=2.0878       C8-H42=1.0918        C9-C5=1.4494         C9-C8=1.4496         C9-H15=1.0911        C9-Fe30=2.0935       
H10-C3=1.0958        H11-C4=1.0919        H12-C4=1.0913        H13-C4=1.0898        Rh14-P1=2.3397       Rh14-P2=2.3550       
Rh14-C78=2.2030      Rh14-C79=2.1991      Rh14-C81=2.2177      Rh14-C82=2.2047      H15-C9=1.0911        C16-C17=1.3787       
C16-C21=1.3764       C16-H40=1.0777       C17-C16=1.3787       C17-C18=1.3900       C17-H71=1.0765       C18-C17=1.3900       
C18-C19=1.3906       C18-C61=1.4903       C19-P2=1.8151        C19-C18=1.3906       C19-C20=1.3784       C20-C19=1.3784       
C20-C21=1.3798       C20-H22=1.0768       C21-C16=1.3764       C21-C20=1.3798       C21-H72=1.0771       H22-C20=1.0768       
C23-C24=1.3770       C23-C28=1.3790       C23-H41=1.0778       C24-C23=1.3770       C24-C25=1.3812       C24-H70=1.0774       
C25-C24=1.3812       C25-C26=1.3792       C25-H29=1.0779       C26-P2=1.8152        C26-C25=1.3792       C26-C27=1.3901       
C27-C26=1.3901       C27-C28=1.3910       C27-C65=1.4913       C28-C23=1.3790       C28-C27=1.3910       C28-H69=1.0764       
H29-C25=1.0779       Fe30-C5=2.1045       Fe30-C6=2.0990       Fe30-C7=2.0877       Fe30-C8=2.0878       Fe30-C9=2.0935       
Fe30-C31=2.1018      Fe30-C32=2.0976      Fe30-C33=2.0862      Fe30-C34=2.0825      Fe30-C35=2.0951      C31-Fe30=2.1018      
C31-C32=1.4507       C31-C35=1.4505       C31-H36=1.0917       C32-Fe30=2.0976      C32-C31=1.4507       C32-C33=1.4502       
C32-H44=1.0917       C33-Fe30=2.0862      C33-C32=1.4502       C33-C34=1.4509       C33-H37=1.0916       C34-Fe30=2.0825      
C34-C33=1.4509       C34-C35=1.4496       C34-H38=1.0903       C35-Fe30=2.0951      C35-C31=1.4505       C35-C34=1.4496       
C35-H39=1.0917       H36-C31=1.0917       H37-C33=1.0916       H38-C34=1.0903       H39-C35=1.0917       H40-C16=1.0777       
H41-C23=1.0778       H42-C8=1.0918        H43-C7=1.0907        H44-C32=1.0917       C45-P1=1.8091        C45-C46=1.3719       
C45-O47=1.3697       C46-C45=1.3719       C46-C48=1.3947       C46-H49=1.0780       O47-C45=1.3697       O47-C50=1.3659       
C48-C46=1.3947       C48-C50=1.3739       C48-H51=1.0777       H49-C46=1.0780       C50-O47=1.3659       C50-C48=1.3739       
C50-H52=1.0834       H51-C48=1.0777       H52-C50=1.0834       C53-P1=1.8166        C53-C54=1.3731       C53-O55=1.3686       
C54-C53=1.3731       C54-C56=1.3941       C54-H57=1.0772       O55-C53=1.3686       O55-C58=1.3638       C56-C54=1.3941       
C56-C58=1.3729       C56-H59=1.0778       H57-C54=1.0772       C58-O55=1.3638       C58-C56=1.3729       C58-H60=1.0837       
H59-C56=1.0778       H60-C58=1.0837       C61-C18=1.4903       C61-H62=1.0904       C61-H63=1.0881       C61-H64=1.0902       
H62-C61=1.0904       H63-C61=1.0881       H64-C61=1.0902       C65-C27=1.4913       C65-H66=1.0896       C65-H67=1.0903       
C65-H68=1.0894       H66-C65=1.0896       H67-C65=1.0903       H68-C65=1.0894       H69-C28=1.0764       H70-C24=1.0774       
H71-C17=1.0765       H72-C21=1.0771       C73-C74=1.5913       C73-C75=1.5907       C73-H76=1.0936       C73-H77=1.0937       
C74-C73=1.5913       C74-C78=1.5605       C74-C79=1.5585       C74-H80=1.1040       C75-C73=1.5907       C75-C81=1.5574       
C75-C82=1.5598       C75-H83=1.1039       H76-C73=1.0936       H77-C73=1.0937       C78-Rh14=2.2030      C78-C74=1.5605       
C78-C81=1.3723       C78-H84=1.0934       C79-Rh14=2.1991      C79-C74=1.5585       C79-C82=1.3752       C79-H85=1.0922       
H80-C74=1.1040       C81-Rh14=2.2177      C81-C75=1.5574       C81-C78=1.3723       C81-H86=1.0908       C82-Rh14=2.2047      
C82-C75=1.5598       C82-C79=1.3752       C82-H87=1.0929       H83-C75=1.1039       H84-C78=1.0934       H85-C79=1.0922       
H86-C81=1.0908       H87-C82=1.0929       
 C  H  Rav=1.0874 sigma=0.0075  Rmin=1.0764  Rmax=1.1040    40
 C  C  Rav=1.4392 sigma=0.0691  Rmin=1.3719  Rmax=1.5913    40
 O  C  Rav=1.3670 sigma=0.0023  Rmin=1.3638  Rmax=1.3697     4
 P  C  Rav=1.8238 sigma=0.0164  Rmin=1.8091  Rmax=1.8580     6
 Fe C  Rav=2.0936 sigma=0.0069  Rmin=2.0825  Rmax=2.1045    10
 Rh C  Rav=2.2061 sigma=0.0070  Rmin=2.1991  Rmax=2.2177     4
 Rh P  Rav=2.3474 sigma=0.0076  Rmin=2.3397  Rmax=2.3550     2
 
 selected bond angles (degree)
 --------------------
Rh14-P1-C5=124.38              C45-P1-C5=107.94               C45-P1-Rh14= 92.42             C53-P1-C5=107.38               
C53-P1-Rh14=115.48             C53-P1-C45=106.56              Rh14-P2-C3=116.04              C19-P2-C3=109.01               
C19-P2-Rh14=108.82             C26-P2-C3=114.61               C26-P2-Rh14= 94.25             C26-P2-C19=113.49              
C4-C3-P2=111.98                C6-C3-P2=108.19                C6-C3-C4=113.55                H10-C3-P2=105.20               
H10-C3-C4=109.91               H10-C3-C6=107.58               H11-C4-C3=111.40               H12-C4-C3=111.67               
H12-C4-H11=107.88              H13-C4-C3=110.59               H13-C4-H11=107.20              H13-C4-H12=107.92              
C6-C5-P1=124.66                C9-C5-P1=127.04                C9-C5-C6=108.00                Fe30-C5-P1=131.59              
Fe30-C5-C6= 69.48              Fe30-C5-C9= 69.40              C5-C6-C3=124.80                C7-C6-C3=127.74                
C7-C6-C5=107.45                Fe30-C6-C3=127.04              Fe30-C6-C5= 69.88              Fe30-C6-C7= 69.14              
C8-C7-C6=108.12                Fe30-C7-C6= 69.98              Fe30-C7-C8= 69.70              H43-C7-C6=125.93               
H43-C7-C8=125.93               H43-C7-Fe30=127.14             C9-C8-C7=108.06                Fe30-C8-C7= 69.68              
Fe30-C8-C9= 69.93              H42-C8-C7=125.96               H42-C8-C9=125.96               H42-C8-Fe30=127.35             
C8-C9-C5=108.36                H15-C9-C5=125.47               H15-C9-C8=126.14               Fe30-C9-C5= 70.21              
Fe30-C9-C8= 69.50              Fe30-C9-H15=127.57             
 
 selected dihedral angles (degree)
 ---------------------------------
C4-C3-P2-Rh14=203.14          C4-C3-P2-C19= 79.90           C4-C3-P2-C26=311.47           C6-C3-P2-Rh14= 77.26          
C6-C3-P2-C19=314.02           C6-C3-P2-C26=185.59           H10-C3-P2-Rh14=322.50         H10-C3-P2-C19=199.26          
H10-C3-P2-C26= 70.83          H11-C4-C3-P2=172.46           H11-C4-C3-C6=295.35           H11-C4-C3-H10= 55.91          
H12-C4-C3-P2= 51.76           H12-C4-C3-C6=174.65           H12-C4-C3-H10=295.20          H13-C4-C3-P2=291.57           
H13-C4-C3-C6= 54.46           H13-C4-C3-H10=175.02          C6-C5-P1-Rh14= 14.54          C6-C5-P1-C45=268.56           
C6-C5-P1-C53=154.03           C9-C5-P1-Rh14=201.65          C9-C5-P1-C45= 95.66           C9-C5-P1-C53=341.13           
Fe30-C5-P1-Rh14=107.05        Fe30-C5-P1-C45=  1.06         Fe30-C5-P1-C53=246.53         C5-C6-C3-P2=311.16            
C5-C6-C3-C4=186.20            C5-C6-C3-H10= 64.34           C7-C6-C3-P2=130.02            C7-C6-C3-C4=  5.07            
C7-C6-C3-H10=243.21           Fe30-C6-C3-P2=221.17          Fe30-C6-C3-C4= 96.21          Fe30-C6-C3-H10=334.35         
C3-C6-C5-P1=  5.30            C3-C6-C5-C9=179.34            C3-C6-C5-Fe30=238.22          C7-C6-C5-P1=186.24            
C7-C6-C5-C9=  0.28            C7-C6-C5-Fe30= 59.16          Fe30-C6-C5-P1=127.07          Fe30-C6-C5-C9=301.12          
C8-C7-C6-C3=180.82            C8-C7-C6-C5=359.85            C8-C7-C6-Fe30= 59.48          Fe30-C7-C6-C3=121.35          
Fe30-C7-C6-C5=300.37          H43-C7-C6-C3=359.37           H43-C7-C6-C5=178.40           H43-C7-C6-Fe30=238.03         
C9-C8-C7-C6=359.97            C9-C8-C7-Fe30= 59.62          C9-C8-C7-H43=181.42           Fe30-C8-C7-C6=300.34          
Fe30-C8-C7-H43=121.80         H42-C8-C7-C6=178.29           H42-C8-C7-Fe30=237.95         H42-C8-C7-H43=359.74          
C8-C9-C5-P1=173.56            C8-C9-C5-C6=359.70            C8-C9-C5-Fe30=300.76          H15-C9-C5-P1=355.44           
H15-C9-C5-C6=181.58           H15-C9-C5-Fe30=122.64         Fe30-C9-C5-P1=232.80          Fe30-C9-C5-C6= 58.94          
C5-C9-C8-C7=  0.21            C5-C9-C8-Fe30= 59.68          C5-C9-C8-H42=181.88           H15-C9-C8-C7=178.31           
H15-C9-C8-Fe30=237.78         H15-C9-C8-H42=  0.00          Fe30-C9-C8-C7=300.53          Fe30-C9-C8-H42=122.20         
           -------------------------------------------------
          |                Final Singlepoint                |
           -------------------------------------------------
         :::::::::::::::::::::::::::::::::::::::::::::::::::::
         ::                     SUMMARY                     ::
         :::::::::::::::::::::::::::::::::::::::::::::::::::::
         :: total energy             -15.486475273816 Eh    ::
         :: gradient norm              0.000468240461 Eh/a0 ::
         ::.................................................::
         :: bond energy              -17.672518612033 Eh    ::
         :: angle energy               0.092143130930 Eh    ::
         :: torsion energy             0.015650013224 Eh    ::
         :: repulsion energy           1.107823357990 Eh    ::
         :: electrostat energy         1.130384533761 Eh    ::
         :: dispersion energy         -0.133065467710 Eh    ::
         :: HB energy                 -0.006472033802 Eh    ::
         :: XB energy                 -0.011130388099 Eh    ::
         :: bonded atm energy         -0.009289808076 Eh    ::
         :: external energy            0.000000000000 Eh    ::
         :: add. restraining           0.000000000000 Eh    ::
         :: total charge               1.000000000000 e     ::
         :::::::::::::::::::::::::::::::::::::::::::::::::::::

           -------------------------------------------------
          |                Property Printout                |
           -------------------------------------------------
           -------------------------------------------------
          |                Geometry Summary                 |
           -------------------------------------------------

      molecular mass/u    :      785.4547782
   center of mass at/Å    :        0.0070757      -0.0295991      -0.0751987
  moments of inertia/u·Å² :        0.6106196E+04   0.7936936E+04   0.8910400E+04
rotational constants/cm⁻¹ :        0.2760742E-02   0.2123947E-02   0.1891905E-02

 * 91 selected distances

     #   Z          #   Z                                           value/Å
     2  15 p        3   6 c                                       1.8579662
     3   6 c        4   6 c                                       1.5148778
     1  15 p        5   6 c                                       1.8286813
     3   6 c        6   6 c                                       1.5133880
     5   6 c        6   6 c                                       1.4596715
     6   6 c        7   6 c                                       1.4620638
     7   6 c        8   6 c                                       1.4493574
     5   6 c        9   6 c                                       1.4493631
     8   6 c        9   6 c                                       1.4496395
     3   6 c       10   1 h                                       1.0958478
     4   6 c       11   1 h                                       1.0918874
     4   6 c       12   1 h                                       1.0913480
     4   6 c       13   1 h                                       1.0897852
     1  15 p       14  45 rh                                      2.3397494
     2  15 p       14  45 rh                                      2.3549793 (max)
     9   6 c       15   1 h                                       1.0911339
    16   6 c       17   6 c                                       1.3787048
    17   6 c       18   6 c                                       1.3900333
     2  15 p       19   6 c                                       1.8151435
    18   6 c       19   6 c                                       1.3906115
    19   6 c       20   6 c                                       1.3784228
    16   6 c       21   6 c                                       1.3764224
    20   6 c       21   6 c                                       1.3798433
    20   6 c       22   1 h                                       1.0768192
    23   6 c       24   6 c                                       1.3769910
    24   6 c       25   6 c                                       1.3811504
     2  15 p       26   6 c                                       1.8151577
    25   6 c       26   6 c                                       1.3792153
    26   6 c       27   6 c                                       1.3901492
    23   6 c       28   6 c                                       1.3789627
    27   6 c       28   6 c                                       1.3909798
    25   6 c       29   1 h                                       1.0778845
     6   6 c       30  26 fe                                      2.0990248
     7   6 c       30  26 fe                                      2.0876513
     8   6 c       30  26 fe                                      2.0878498
     9   6 c       30  26 fe                                      2.0935266
    31   6 c       32   6 c                                       1.4507303
    30  26 fe      33   6 c                                       2.0862495
    32   6 c       33   6 c                                       1.4501891
    30  26 fe      34   6 c                                       2.0824936
    33   6 c       34   6 c                                       1.4508620
    31   6 c       35   6 c                                       1.4505469
    34   6 c       35   6 c                                       1.4495544
    31   6 c       36   1 h                                       1.0916571
    33   6 c       37   1 h                                       1.0915734
    34   6 c       38   1 h                                       1.0903253
    35   6 c       39   1 h                                       1.0916708
    16   6 c       40   1 h                                       1.0777317
    23   6 c       41   1 h                                       1.0777518
     8   6 c       42   1 h                                       1.0917525
     7   6 c       43   1 h                                       1.0906549
    32   6 c       44   1 h                                       1.0917368
     1  15 p       45   6 c                                       1.8090846
    45   6 c       46   6 c                                       1.3718957
    45   6 c       47   8 o                                       1.3696964
    46   6 c       48   6 c                                       1.3946909
    46   6 c       49   1 h                                       1.0780088
    47   8 o       50   6 c                                       1.3658568
    48   6 c       50   6 c                                       1.3738765
    48   6 c       51   1 h                                       1.0777498
    50   6 c       52   1 h                                       1.0834283
     1  15 p       53   6 c                                       1.8166081
    53   6 c       54   6 c                                       1.3730838
    53   6 c       55   8 o                                       1.3685548
    54   6 c       56   6 c                                       1.3941037
    54   6 c       57   1 h                                       1.0771945
    55   8 o       58   6 c                                       1.3637996
    56   6 c       58   6 c                                       1.3729222
    56   6 c       59   1 h                                       1.0777658
    58   6 c       60   1 h                                       1.0837052
    18   6 c       61   6 c                                       1.4902819
    61   6 c       62   1 h                                       1.0903957
    61   6 c       63   1 h                                       1.0881093
    61   6 c       64   1 h                                       1.0902256
    65   6 c       66   1 h                                       1.0895903
    65   6 c       67   1 h                                       1.0902911
    65   6 c       68   1 h                                       1.0894392
    28   6 c       69   1 h                                       1.0763728 (min)
    24   6 c       70   1 h                                       1.0774034
    17   6 c       71   1 h                                       1.0765213
    21   6 c       72   1 h                                       1.0770684
    73   6 c       76   1 h                                       1.0936071
    73   6 c       77   1 h                                       1.0936606
    74   6 c       80   1 h                                       1.1039588
    78   6 c       81   6 c                                       1.3722796
    79   6 c       82   6 c                                       1.3751953
    75   6 c       83   1 h                                       1.1038539
    78   6 c       84   1 h                                       1.0933590
    79   6 c       85   1 h                                       1.0921804
    81   6 c       86   1 h                                       1.0907687
    82   6 c       87   1 h                                       1.0928588

 * 6 distinct bonds (by element types)

   Z      Z             #   av. dist./Å        max./Å        min./Å
   1 H    6 C          40     1.0874269     1.1039588     1.0763728
   6 C    6 C          33     1.4139412     1.5148778     1.3718957
   6 C    8 O           4     1.3669769     1.3696964     1.3637996
   6 C   15 P           6     1.8237736     1.8579662     1.8090846
   6 C   26 Fe          6     2.0894659     2.0990248     2.0824936
  15 P   45 Rh          2     2.3473644     2.3549793     2.3397494


optimized geometry written to: xtbopt.coord


           -------------------------------------------------
          | TOTAL ENERGY              -15.486475273816 Eh   |
          | GRADIENT NORM               0.000468240461 Eh/α |
           -------------------------------------------------
########################################################################
[WARNING] Runtime exception occurred
-1- gfnff_setup: Could not read topology file.
########################################################################

------------------------------------------------------------------------
 * finished run on 2024/02/05 at 14:11:06.403     
------------------------------------------------------------------------
 total:
 * wall-time:     0 d,  0 h,  0 min,  0.543 sec
 *  cpu-time:     0 d,  0 h,  0 min,  0.157 sec
 * ratio c/w:     0.288 speedup
 SCF:
 * wall-time:     0 d,  0 h,  0 min,  0.095 sec
 *  cpu-time:     0 d,  0 h,  0 min,  0.003 sec
 * ratio c/w:     0.036 speedup
 ANC optimizer:
 * wall-time:     0 d,  0 h,  0 min,  0.148 sec
 *  cpu-time:     0 d,  0 h,  0 min,  0.139 sec
 * ratio c/w:     0.937 speedup

