87
 energy: -15.429600621978 gnorm: 0.138029654053 xtb: 6.6.1 (8d0f1dd)
p            1.03104118153224        1.07377130195179        0.35612085369787
p           -1.41015878074937       -1.01899092195371        0.02524847629367
c            0.10561958597735       -1.92158753657510       -0.61846198187779
c           -0.04638428291910       -3.36338717364857       -1.08254704765533
c            1.75283091375545       -0.50796163397106        0.78245415127496
c            1.18882548810306       -1.77067204199396        0.39819087738766
c            1.97109953949869       -2.78607878651224        0.99482878125982
c            3.02336547195882       -2.17164413673927        1.70968693957804
c            2.90411815337912       -0.77599421639130        1.57677695956258
h            0.41321754342251       -1.31569716528123       -1.48052001021256
h            0.86315775110990       -3.65053070410644       -1.60516139910499
h           -0.89146337990452       -3.47808397234448       -1.75729556915820
h           -0.17349280565926       -4.03995256941553       -0.24695829847234
rh          -1.17871969567516        1.24349674269068       -0.09604657382056
h            3.55367097676698       -0.04246312058003        2.01292935993570
c           -1.52340785321747       -2.02294331414973        4.52145066090472
c           -1.81829422730564       -3.03984454426210        3.63599765519042
c           -1.84413477241257       -2.83824644278667        2.25773669947487
c           -1.55760081800594       -1.55987751333335        1.76658065066837
c           -1.27783075385435       -0.53317094436389        2.67558982542539
c           -1.25755831990592       -0.75247533743156        4.03661063499301
h           -1.07753289842039        0.46951262940772        2.29418730223872
c           -5.17215807020297       -2.25880834792415       -2.30539810591074
c           -5.15316564620121       -2.33469957761110       -0.92253689913831
c           -4.00565807325301       -1.99044373270941       -0.23515878470340
c           -2.86015630100293       -1.58392928255844       -0.91801566519775
c           -2.90113111386347       -1.42863898698667       -2.31052560382684
c           -4.06029643250983       -1.79337178421910       -2.98439797711626
h           -3.99235973493796       -2.03171192001812        0.84440137772636
fe           3.09249274854513       -1.63392900757202       -0.27285324245785
c            4.32780796153340       -2.90108400971920       -1.33154849154208
c            5.05617387511967       -1.77754702902712       -0.88278027478403
c            4.46560241739472       -0.62542166506238       -1.43981682187174
c            3.37750775971199       -1.03695820318280       -2.24354190848082
c            3.29696802578172       -2.44209310554825       -2.17924031985384
h            4.54200629267268       -3.92708985950626       -1.09774209877934
h            4.80952233078299        0.38163673263598       -1.30963394418812
h            2.76419999393519       -0.40449286769506       -2.85675700336170
h            2.61204883911177       -3.05945188088790       -2.72921715524566
h           -1.50893107713200       -2.21666173860794        5.58271153462832
h           -6.05923250690088       -2.53730029376509       -2.85244445552007
h            3.78687354749321       -2.68492285824280        2.26120855996541
h            1.81536039115829       -3.84431544725093        0.91957136666089
h            5.91664606800349       -1.79825268837120       -0.24106330974892
c            1.83720495045404        1.65167251344049       -1.14372636305598
c            2.98065484152384        2.29556825716600       -1.52234651908505
o            1.02372866702182        1.47809934174510       -2.21925949026309
c            2.86385179758204        2.51125328769013       -2.91415762987671
h            3.79115720245915        2.58488040280499       -0.88664543814651
c            1.65779328850641        1.99444000382013       -3.28027711021144
h            3.57987579383323        2.98759593926817       -3.55115287473992
h            1.16370660730358        1.94129934403846       -4.23076394945422
c            1.75100264584193        2.16032544168165        1.59323856840193
c            1.92397770401585        2.04692248009797        2.94830327981525
o            2.05077292143082        3.41926087794008        1.19390394978328
c            2.39131146736443        3.30440306440819        3.38932778433407
h            1.74961814628936        1.17219154773336        3.54147681297267
c            2.44676815805343        4.09490397648879        2.28094230229248
h            2.64978141945132        3.58052596112308        4.39037529551559
h            2.74812240232858        5.11478075238461        2.14488758915164
c           -2.20420500958075       -4.01337253198916        1.40260957220051
h           -3.17095884608812       -4.40984642687723        1.71223211683169
h           -2.26154791589728       -3.75384227899628        0.35159508174151
h           -1.47540801665003       -4.81135943662482        1.54130875901608
c           -1.75343493108057       -0.84055431038667       -3.07360420195843
h           -1.00926112568776       -1.59868636073695       -3.31350053497814
h           -2.10664854037227       -0.41857055799759       -4.01229264023479
h           -1.26970999018809       -0.04468405291109       -2.49164446814256
h           -4.09470622785468       -1.69592206407990       -4.05979877434299
h           -6.02973502463096       -2.65678604031915       -0.38234362533837
h           -2.03873610976237       -4.02784948032287        4.01320413019651
h           -1.04041837706451        0.05816533207693        4.71505374332942
c           -3.49007930805036        3.99475039429867       -0.32708341419905
c           -2.65816162399402        3.23190167710821       -1.37244112905616
c           -2.96012848463348        3.15279648280392        0.84656653632352
h           -4.56439027127037        3.89256100952272       -0.47676152998782
h           -3.22478170430331        5.04894711680052       -0.25277402840263
c           -1.26875456031946        3.33297529315845       -0.74475917246722
c           -3.05553217722846        1.79316212479129       -1.04193815340965
h           -2.74582240903941        3.53413607592180       -2.41187249164661
c           -1.45509699792254        3.28677586551942        0.61656066989603
c           -3.24516432684272        1.74530182842895        0.32252949246041
h           -3.32221616600711        3.38391452672879        1.84403712742391
h           -0.40091667379323        3.70646832148379       -1.27038020818820
h           -3.46021570102724        1.10755193664711       -1.77299770579716
h           -0.76559791423087        3.61092374774655        1.38435336835831
h           -3.80469759883492        1.00370481758142        0.87712162429300
87
 energy: -15.458286880031 gnorm: 0.059800749552 xtb: 6.6.1 (8d0f1dd)
p            1.03983073394668        1.07271504947739        0.36585530820833
p           -1.41689605957015       -1.05936139831313        0.03029202113715
c            0.10084497562399       -1.92688605585618       -0.63119261384544
c           -0.05534165788460       -3.36598832425458       -1.09108547774044
c            1.76120109592897       -0.50801146462554        0.78523602662939
c            1.18872898759989       -1.78043711392012        0.38926975262788
c            1.98356965683400       -2.81837207316573        0.99629458895811
c            3.05058555646205       -2.19390707455429        1.72631380730417
c            2.92357233034455       -0.77382057322817        1.59230183681801
h            0.39746330869529       -1.31227573678797       -1.49129636923021
h            0.85041178585282       -3.67243294645485       -1.61320648351443
h           -0.90225360870495       -3.48212579952241       -1.76419900089244
h           -0.18618803523963       -4.03886047377082       -0.24837525106154
rh          -1.18770421818600        1.25085562219963       -0.13247801359165
h            3.57451470834743       -0.02731912004674        2.03341756800314
c           -1.52408811399175       -2.02045226030968        4.52114675291608
c           -1.81898700256993       -3.03923713862080        3.64060448712895
c           -1.84621672234048       -2.83710159744225        2.26602489853176
c           -1.55997871966110       -1.56292450092669        1.77749545025383
c           -1.27536895353157       -0.53861457410519        2.67312188479832
c           -1.25720675157531       -0.75617623376476        4.03532691552647
h           -1.07050801030261        0.45399491927838        2.29431121277637
c           -5.17208331289851       -2.25533331940711       -2.30462245994936
c           -5.15263531145096       -2.33256227078981       -0.92625394203525
c           -4.00576059432581       -1.98832025297437       -0.24029944343044
c           -2.87376167190051       -1.57141323930466       -0.92021451624657
c           -2.90461984624532       -1.42543958567066       -2.30731478872318
c           -4.06179279726532       -1.79302764311403       -2.98327733661416
h           -3.99065557244096       -2.02885381944593        0.83741751470524
fe           3.10686518085928       -1.64070407375450       -0.27031966984036
c            4.33847811189708       -2.92428321346579       -1.33008442094534
c            5.07917083974815       -1.78038700747572       -0.87117382979364
c            4.47556869928515       -0.60650294522568       -1.43652291153962
c            3.36673531173869       -1.02478010479835       -2.25172649639851
c            3.28611883969501       -2.45576792990603       -2.18916775454850
h            4.55263810307702       -3.96083185571867       -1.09215314546634
h            4.82182411093714        0.41194005926409       -1.30382678847857
h            2.74443946965851       -0.38411360777255       -2.86718055881523
h            2.59358388068388       -3.07823393894563       -2.74531054929776
h           -1.50895185819764       -2.21119606836631        5.58195063944910
h           -6.05844724559836       -2.53523509125134       -2.85051941279613
h            3.82099386638417       -2.71018931813474        2.28575966228248
h            1.82183474668287       -3.88620066261915        0.91556014180899
h            5.94931028260923       -1.80107172680533       -0.22387555194321
c            1.81177266697221        1.66332773486598       -1.15248194000560
c            2.96946839423048        2.29856637711321       -1.53118758660948
o            1.00348626331111        1.47410589935765       -2.23981847101698
c            2.86677867175851        2.51210915336491       -2.91732816884211
h            3.77776844509998        2.59377335039026       -0.88564924046594
c            1.65632296180055        1.99545302411158       -3.30212487952368
h            3.59493314939957        2.98404019924459       -3.55139458147705
h            1.17943025756100        1.94734817420483       -4.26885568070909
c            1.70514438521367        2.19203295358475        1.60345916928069
c            1.91445977122659        2.06297542237501        2.95559549433119
o            2.02994706482280        3.44916088617166        1.19467625760828
c            2.39539610741079        3.30714138643827        3.39807912599794
h            1.73320351241477        1.18320733645652        3.54777048836587
c            2.45085094129421        4.11455336921956        2.29067413532130
h            2.67665427382911        3.57121475729137        4.40079269963711
h            2.76781830384178        5.13936814157712        2.17109115734304
c           -2.20261192002539       -4.00761984448312        1.40700448450387
h           -3.17115665722690       -4.40828499550894        1.70788218421798
h           -2.25863329066331       -3.74476086184699        0.35408734967089
h           -1.47317304728465       -4.80735080518790        1.53748603547945
c           -1.75678935647489       -0.84303987822702       -3.07116194537874
h           -1.01360920717239       -1.60285147909147       -3.30998110325942
h           -2.10450222336326       -0.41822494727483       -4.01217329771306
h           -1.26973200150682       -0.04977461759140       -2.49951091111046
h           -4.09408788751290       -1.69861165237876       -4.05644899844943
h           -6.02767165550106       -2.65678512713770       -0.38658470220763
h           -2.03870549346127       -4.02445900363542        4.01827271298110
h           -1.03889596296474        0.05395465823101        4.71226164889252
c           -3.50345452082287        4.01264068433247       -0.32639593585863
c           -2.65621133395049        3.23317584067125       -1.38474541353068
c           -2.95818791915477        3.14938764738911        0.86069993284815
h           -4.58075914115028        3.90505819074586       -0.47657183848125
h           -3.23198610782198        5.06856938200455       -0.25135444857191
c           -1.25057384884191        3.35871934237935       -0.74412393809104
c           -3.09116401771599        1.78429974944682       -1.04874520466718
h           -2.74640152165442        3.54085981547589       -2.43480044108254
c           -1.43538774579480        3.30774225417375        0.62385094400993
c           -3.27534537332173        1.73217719381276        0.32199896568826
h           -3.32574691209783        3.38544875219138        1.86808117653691
h           -0.36425333247612        3.70389248836873       -1.27404803457071
h           -3.46956805141870        1.07644204880353       -1.78374406182125
h           -0.73613127027092        3.61924471129754        1.39779773302954
h           -3.82404259572768        0.97939601725711        0.88537152076721
87
 energy: -15.467984150594 gnorm: 0.023678901131 xtb: 6.6.1 (8d0f1dd)
p            1.04616758732060        1.07326225801237        0.37959589794996
p           -1.41961660414070       -1.09821894095326        0.03567665350308
c            0.10026465658597       -1.93179324745639       -0.64054939360391
c           -0.07075592246276       -3.36757353831935       -1.09858132763865
c            1.77010343626407       -0.51279344889093        0.79146170092031
c            1.19437173209423       -1.78927045499673        0.38399301256047
c            1.99757208683976       -2.84374248071055        0.99898513833321
c            3.07087165210611       -2.21332351510629        1.74309148649367
c            2.93597417134517       -0.77694821732973        1.61023166383977
h            0.38326062525980       -1.31006425148655       -1.50010582118644
h            0.82645346601511       -3.70299882563937       -1.62162314068197
h           -0.92135481486647       -3.48045609759105       -1.76941091117644
h           -0.20949392589747       -4.03573009395878       -0.25023117102261
rh          -1.20441988732034        1.24631454285590       -0.16487894810056
h            3.58453533855514       -0.02082987694303        2.05672863400533
c           -1.52509805133422       -2.01587686527924        4.52234447383267
c           -1.82098985527219       -3.03747385283085        3.64673188795674
c           -1.84848414482525       -2.83384594572758        2.27391062776798
c           -1.55872009252965       -1.56236413994119        1.78858503884801
c           -1.26772398088753       -0.54016767122841        2.67157578849470
c           -1.25392496004410       -0.75715619175258        4.03526196346912
h           -1.05121596703763        0.44428340429625        2.29338508707299
c           -5.17234598935699       -2.24957903217376       -2.30332359550904
c           -5.15139650049862       -2.32931072197694       -0.92833994226450
c           -4.00502135170579       -1.98074462113822       -0.24320186546442
c           -2.88502376543130       -1.55336961042505       -0.92241760682456
c           -2.90739451390942       -1.41869980473677       -2.30569719845078
c           -4.06350328769661       -1.79049110735002       -2.98297183007123
h           -3.98643236288066       -2.02365626025904        0.83342087107330
fe           3.12807881530325       -1.64758364617519       -0.26774713127984
c            4.35528846338591       -2.93967714232476       -1.33676094792426
c            5.10330703919614       -1.78469104552206       -0.87121461961563
c            4.49007052154156       -0.59745193637878       -1.43802730721143
c            3.36738019214285       -1.01856076007118       -2.25670555706412
c            3.28807002226033       -2.46443698705040       -2.19826339231850
h            4.56695741019575       -3.98282348317774       -1.09449216855178
h            4.83681822586853        0.42798760895426       -1.30246391902881
h            2.73598225400035       -0.37146015687231       -2.86793738792125
h            2.58992367617597       -3.08884009265138       -2.75802823092362
h           -1.51030348567968       -2.20313267986175        5.58334765340686
h           -6.05864087590878       -2.53162425083412       -2.84765555433759
h            3.84520449464944       -2.73121832405339        2.30969443214489
h            1.83109261930271       -3.91755819901853        0.91142730544060
h            5.98007671827674       -1.80573476759470       -0.22140114014009
c            1.77715124688040        1.66595366321339       -1.16711292944176
c            2.94280177807383        2.29881042654949       -1.53745638188127
o            0.98193473383474        1.46263577244499       -2.26735649919354
c            2.86192506951264        2.51163249776954       -2.91604471701313
h            3.74319968534168        2.60042309196496       -0.87968389635498
c            1.65563178283979        1.99314456656626       -3.32521901159212
h            3.60197182774048        2.98418553994114       -3.54141141248057
h            1.20750101175449        1.95349966822548       -4.31176506309764
c            1.66577526210143        2.22747156056145        1.61171749221906
c            1.90125072555936        2.08434365803079        2.95872560921176
o            2.00750979614124        3.48370801225596        1.19939777804372
c            2.39546388788472        3.31259695830430        3.40581709571413
h            1.71721242145038        1.19930450120263        3.54676892904435
c            2.45129660910896        4.13700479780700        2.30537198121825
h            2.69318602319694        3.56324260531517        4.41081590104954
h            2.78381045665574        5.16537281999566        2.21162488915612
c           -2.20065853310499       -3.99840745841748        1.40942539995929
h           -3.17122095980393       -4.40392663220174        1.69894636198700
h           -2.25437914737655       -3.73009988038231        0.35616439261559
h           -1.47031581442446       -4.79958661984350        1.52951898376628
c           -1.75884657476211       -0.84821236891701       -3.07315447266812
h           -1.02028002608941       -1.61317929526870       -3.31007255886588
h           -2.10006409857352       -0.41993727847354       -4.01593812930353
h           -1.26347957877333       -0.05668419934412       -2.51386937529613
h           -4.09391234575404       -1.70059923516793       -4.05501861792912
h           -6.02460099261205       -2.65780168798495       -0.38920626115282
h           -2.04095577407930       -4.02068667159730        4.02572853533335
h           -1.03359572431666        0.05194891415522        4.71148498348392
c           -3.51197440722431        4.02969209240593       -0.32317826779979
c           -2.65582588915060        3.23391491948553       -1.39087421074185
c           -2.95442092254823        3.14542380421547        0.86995812666235
h           -4.59051453701293        3.91979755448034       -0.47262734035697
h           -3.23291591705751        5.08469650567636       -0.24724594405950
c           -1.24098377820597        3.36941945903092       -0.74166672218455
c           -3.12462452370635        1.78348744502660       -1.05029114980851
h           -2.74779604074740        3.54672360503775       -2.44657290677840
c           -1.42262759437039        3.31434772747729        0.62433855834188
c           -3.30159812249169        1.72780491763002        0.31842456182307
h           -3.32339390038994        3.38524650680625        1.88320799010048
h           -0.33548887033454        3.68157463988836       -1.27177436247998
h           -3.47441348719905        1.05255379767457       -1.78487215632603
h           -0.70842593994242        3.60604631120289        1.39903615803321
h           -3.83278238920499        0.96091470451414        0.88824552643423
87
 energy: -15.471291004602 gnorm: 0.024516888642 xtb: 6.6.1 (8d0f1dd)
p            1.04267001455961        1.07413931100071        0.38971832235218
p           -1.41610130915876       -1.12042601774808        0.03829417191273
c            0.10380800851051       -1.93767452243610       -0.64576203613338
c           -0.08884736759316       -3.37061163206239       -1.10380260250620
c            1.77647002005383       -0.51922136235879        0.79541177532662
c            1.20477278002941       -1.79675618184690        0.37881973235798
c            2.01072149965769       -2.85678854552209        0.99741202531933
c            3.08017502594249       -2.22466808379256        1.75301711164550
c            2.93947320783434       -0.78331006999614        1.62312169104243
h            0.37642433981232       -1.31387135711563       -1.50674532886389
h            0.79723889321697       -3.73213867343276       -1.63064178583987
h           -0.94511877402131       -3.47422383152678       -1.77057306840031
h           -0.23623026983036       -4.03464465399965       -0.25308832136862
rh          -1.22034500403677        1.23374643353503       -0.17873440327027
h            3.58270884818817       -0.02386571277539        2.07599672750303
c           -1.52555459488092       -2.00960788126125        4.52514054808355
c           -1.82475578600518       -3.03309974350686        3.65264886322872
c           -1.85056951794489       -2.82863920581153        2.27936039192035
c           -1.55278906608307       -1.55903631356721        1.79530485421060
c           -1.25335909343666       -0.53770134327377        2.67206940819168
c           -1.24508471480658       -0.75442355789180        4.03653279685164
h           -1.02001012054704        0.44184170460708        2.29224173401572
c           -5.17350935176116       -2.24137946438832       -2.30159500118318
c           -5.15043826722636       -2.32263168437128       -0.92754039475852
c           -4.00397255775797       -1.96952096099774       -0.24319205602029
c           -2.88834194392856       -1.53911779929400       -0.92437732307485
c           -2.90852665076064       -1.41145822659524       -2.30720755239146
c           -4.06555569811629       -1.78476163543089       -2.98342559391944
h           -3.98162872750464       -2.01620251931772        0.83317480507804
fe           3.15179679638297       -1.65224741947444       -0.26489402188634
c            4.37469100230265       -2.94624681837133       -1.34608129094562
c            5.12602277932532       -1.78962252440140       -0.87897242876706
c            4.50779176554484       -0.59773277255441       -1.44097293837636
c            3.37824540917049       -1.01781148667702       -2.25611587977483
c            3.29997870400039       -2.46742965951367       -2.20206527626546
h            4.58632136523320       -3.99162789352520       -1.10563855215463
h            4.85434872341569        0.42938986796575       -1.30344079379632
h            2.73949886385432       -0.36697844595848       -2.85855668548941
h            2.59836638626240       -3.09077758698802       -2.76178738884249
h           -1.51340787688800       -2.19373226132502        5.58676411000637
h           -6.06043721840331       -2.52498465439698       -2.84416375510006
h            3.85423814327820       -2.74256043886041        2.32467848648878
h            1.84402802022207       -3.93212310462056        0.90365078027850
h            6.00652535383391       -1.81195088500199       -0.23124162972429
c            1.74050333143245        1.66107721002301       -1.18176337382109
c            2.90665227824506        2.30050716602535       -1.53668167468980
o            0.96424277346924        1.44636039407768       -2.29510809380225
c            2.84994681617221        2.51107766344660       -2.91283146211622
h            3.69420813602629        2.60975766594311       -0.86623096796544
c            1.65446162699105        1.98516010116549       -3.34469926506881
h            3.59826938755056        2.98872760011477       -3.52613865766020
h            1.23769867527470        1.95039673291866       -4.34764210998812
c            1.64111395704161        2.25438287688216        1.61409211536902
c            1.88388198199278        2.10224833337753        2.95814334035006
o            1.98648829728910        3.51398167440613        1.20771276811441
c            2.38800982848158        3.31999607092517        3.41267746823775
h            1.70184967209378        1.21275524158193        3.54043473508744
c            2.44283796596706        4.15682921221516        2.32131544753483
h            2.69111465728575        3.55985066051571        4.41965279435011
h            2.78495708861243        5.18605188899334        2.25301988193750
c           -2.20077076037577       -3.98790989077981        1.40961361123127
h           -3.17273009526573       -4.39637850563503        1.69020425000928
h           -2.25217505061009       -3.71286227060809        0.35771622208024
h           -1.46965008477910       -4.78969512588595        1.52129067571721
c           -1.75779314122106       -0.85670020964896       -3.08077420379923
h           -1.02800837128249       -1.63048044256211       -3.31644858216638
h           -2.09475381452428       -0.42575357786388       -4.02405580889405
h           -1.25019084737657       -0.06683963418737       -2.53127808883488
h           -4.09540154780657       -1.69943007715157       -4.05561669653576
h           -6.02171143456865       -2.65595150610167       -0.38842845520532
h           -2.04807213958251       -4.01476208760004        4.03348837976726
h           -1.02088708280206        0.05344998413416        4.71261528050816
c           -3.51045609582992        4.04080213428484       -0.31709993698982
c           -2.65725537322078        3.23439659270517       -1.39147618725841
c           -2.94949797648255        3.14244654755323        0.87500026290971
h           -4.58986383384960        3.93589566190506       -0.46385700703891
h           -3.22332508557558        5.09357092989330       -0.23998403566086
c           -1.23861747152829        3.36201327887441       -0.74180770152198
c           -3.14582667769697        1.78740518136936       -1.04942045684571
h           -2.75075049666477        3.55169332658834       -2.44717014926721
c           -1.41638165766084        3.30515149321185        0.62118061977362
c           -3.31660360338568        1.72989729317868        0.31645870221486
h           -3.31498120693084        3.38427736027528        1.89021178813602
h           -0.32039488912745        3.64694794876828       -1.26958226426929
h           -3.47956739604424        1.04326214483839       -1.77990762363999
h           -0.68672939837914        3.57540462406313        1.39173832431722
h           -3.83208168747458        0.95185519423856        0.88841998462674
87
 energy: -15.474263905803 gnorm: 0.024833897818 xtb: 6.6.1 (8d0f1dd)
p            1.03180058540871        1.07451492203617        0.39984695249890
p           -1.40878052947111       -1.13979028245906        0.04030529680164
c            0.11020856206758       -1.94512438977087       -0.65093583561451
c           -0.10961643268419       -3.37465504669769       -1.10878581094582
c            1.78185618513280       -0.52800308736304        0.79888904979731
c            1.22013524194003       -1.80574158001964        0.37005375265266
c            2.02647395345231       -2.86726288771572        0.99061165015763
c            3.08534830037936       -2.23504289508365        1.76116255927150
c            2.93752582910794       -0.79285236786775        1.63731727375558
h            0.37225478271461       -1.32136792682565       -1.51438993162956
h            0.76100214457130       -3.76339425991287       -1.64305667840608
h           -0.97446761409671       -3.46565915544017       -1.76824526456439
h           -0.26484128659514       -4.03424234007213       -0.25640788246193
rh          -1.23791013370454        1.21641273179783       -0.18751237833905
h            3.57196777382002       -0.03222984431056        2.10026406573300
c           -1.52585482893603       -2.00015465282964        4.52921008669864
c           -1.83160976333906       -3.02491499843781        3.65984936827607
c           -1.85370296302551       -2.82010897008850        2.28536546376039
c           -1.54246511087811       -1.55308893617439        1.80171726065993
c           -1.22968803752650       -0.53285910026387        2.67388253523890
c           -1.22937110874934       -0.74911830702550        4.03864921257711
h           -0.97110232955706        0.44041399370093        2.29122206502240
c           -5.17537871783483       -2.22853256067487       -2.29867493079635
c           -5.14904752111300       -2.31071441142339       -0.92475459248015
c           -4.00195056958571       -1.95299840044264       -0.24201800661805
c           -2.88790592265766       -1.52368139292723       -0.92705574750660
c           -2.90919675313307       -1.40178698267135       -2.31065286834584
c           -4.06852422826224       -1.77476737605929       -2.98396062987609
h           -3.97453221758065       -2.00511310712206        0.83419573597278
fe           3.18388140164292       -1.65571988714290       -0.26118020648212
c            4.40126402479414       -2.95007595099449       -1.35860343794888
c            5.15540845053113       -1.79530568649046       -0.89237085603603