99
 energy: -130.525279403610 gnorm: 0.000770420415 xtb: 6.6.1 (8d0f1dd)
C           -4.30680561795702       -0.67739391078215       -1.65380493041513
C           -4.79754460979860        0.63509262177589       -1.51770777341175
C           -3.87932854630898        1.51175054615672       -2.13746363129153
C           -2.81623722034055        0.73755704458556       -2.64586095136789
C           -3.07944254496602       -0.61249601580565       -2.34983889988899
H           -4.80794343228499       -1.56927954139042       -1.32894837070169
H           -5.71716148776193        0.91880119224672       -1.04477569526076
H           -3.99474335594319        2.57422804010216       -2.23321148120755
H           -1.98298854189359        1.10369388978080       -3.21470868436418
H           -2.48172522404643       -1.44612246337966       -2.66107641692173
Fe          -2.97720299127243        0.53636452306615       -0.61012702153114
C           -2.67696094944444        2.10248154194349        0.61978447876894
C           -1.45173874941894        1.55399687934814        0.16933403834939
C           -1.39219950309067        0.18999763894529        0.61366344482621
C           -2.60440909451277       -0.05804613743675        1.33309607266718
C           -3.38446230398863        1.10505156851429        1.31715901252730
H           -3.03115698272313        3.10059204114315        0.45903435146436
H           -2.86788274861430       -0.95668768343652        1.85368351037857
H           -4.35320285589634        1.21664584849123        1.76037750500733
C           -0.51783968502785        2.24550670012235       -0.77048094688724
H           -0.56640258194972        1.69211346333973       -1.72025565826868
P           -0.03832783856671       -0.97634346080293        0.38976653694070
C           -0.93783412292371        3.68647368579949       -1.04541172943990
H           -0.25659541060929        4.17534825243301       -1.73538273632791
H           -1.92758813456696        3.67669209919392       -1.49640097393458
H           -0.97222980544657        4.28200349991332       -0.13808619241739
P            1.23885710201293        1.94876997409558       -0.24612909908219
Rh           1.80102620623143       -0.18768690509938       -0.77483404830961
C            1.42931807173897        2.42948012938543        1.49351640741172
C            2.61147700974589        2.00365146436054        2.10198054352828
C            2.87619031584396        2.32154226300146        3.42006551997227
C            1.95010068671753        3.05212434164103        4.14965060167691
C            0.76664075505487        3.45918093286536        3.55723450996326
C            0.50390385528337        3.15561166229247        2.23158731507504
H            3.79787808411351        1.99991114634422        3.88148481610781
H            2.14970140309080        3.29710338711610        5.18123134164188
H            0.04235684462023        4.01828230295341        4.12963051993734
H           -0.42685131697806        3.46814925189436        1.78764699595596
C            2.15668872570323        3.26235670206854       -1.12295247278990
C            1.92978289025534        3.44310595884483       -2.48823288586912
C            2.62884667732261        4.40245099548716       -3.19583963382207
C            3.57106554030554        5.18939562360563       -2.55204080286806
C            3.80558243612173        5.01347033251579       -1.19939759156785
C            3.10488282938037        4.05512386127544       -0.48657339265583
H            2.43933194879390        4.53856553254713       -4.24995501168913
H            4.11727577727208        5.93777845128018       -3.10470266470273
H            4.53606291276356        5.62557216729945       -0.69298653735565
H            3.29311875993199        3.93287511238632        0.56998282468990
H            1.19131968764279        2.83558143124242       -2.99591198825808
H            3.31397531192812        1.40920409658088        1.52625164696791
C            0.30147644852842       -1.48983324026004        2.16539375406337
C            1.75683124145899       -1.95539751820867        2.25882748096817
C            0.05949603020652       -0.35702382185403        3.16269925744328
H           -0.36433731730676       -2.32413470171862        2.41265759236940
C            2.14114134989114       -2.35048092794353        3.68207455669967
H            2.40505259477213       -1.13714700234482        1.91201639104724
H            1.91076530687825       -2.81669447648424        1.60809158062877
C            0.42370764428095       -0.78825357991494        4.58115302398548
H           -0.98331581600064       -0.04226401853591        3.14488992990849
H            0.67313387544937        0.49915662962410        2.88586125195129
C            1.88707046589779       -1.20496567833323        4.65317573563799
H            3.19305636209648       -2.64104127227133        3.70831001002209
H            1.54997645292854       -3.21764873108051        3.98605690248427
H            0.23518212794854        0.03932765281824        5.26666113144167
H           -0.20829490999330       -1.62536350023002        4.88552948880614
H            2.51823266150365       -0.35326148910317        4.39086447226571
H            2.14065243416984       -1.51398257617102        5.66784638179046
C           -0.85468967662060       -2.48877899596602       -0.37585966983643
C           -0.02317547465832       -3.75760993907247       -0.17001720163464
C           -2.28957652725097       -2.77152771064765        0.06014503915262
H           -0.87124076569146       -2.24763527600353       -1.44686497967794
C           -0.59223239269921       -4.90970244986766       -0.99704192360428
H           -0.05073074153592       -4.04382887769316        0.88299208220450
H            1.01628355446241       -3.59617433003738       -0.44987752567072
C           -2.87384727384960       -3.93297973801724       -0.74456239702993
H           -2.90566858192646       -1.88767780082962       -0.09751585026753
H           -2.30779831251630       -3.03782884651721        1.11791626275620
C           -2.03202749408745       -5.19350074890012       -0.58637565218935
H            0.02123693146250       -5.80047447386556       -0.85211017871603
H           -0.56045136820959       -4.65287149472622       -2.05866926765162
H           -3.89396339834538       -4.12379975411853       -0.40834406756626
H           -2.91873339696801       -3.65932507190794       -1.80010727307873
H           -2.05444323728605       -5.52083067403985        0.45510754934387
H           -2.44388187848828       -5.99770933939612       -1.19700047390054
C            4.42263371756538       -1.51099986802682       -2.88933740876997
C            2.98418576560004       -1.04137885046067       -3.16669586369551
C            4.32313074529553       -1.22550679203566       -1.38067906127815
H            5.17466781050192       -0.90425589010265       -3.39201424448943
H            4.58301616730932       -2.56413433516665       -3.11749381256024
C            2.21589706875397       -1.86573018445902       -2.13697131853470
C            3.01232132422400        0.33098694821338       -2.50458105536637
H            2.62431477608132       -1.08232684317220       -4.19042834244093
C            3.04182888171734       -1.98417248862702       -1.04415936233647
C            3.83438238306201        0.22105561637713       -1.40231061380759
H            5.19098284612766       -1.44027371230365       -0.76426358162076
H            1.36820727627674       -2.48119847741891       -2.39862213070933
H            2.75219172178639        1.23925907220379       -3.02586673400318
H            3.00594890314834       -2.72228562470729       -0.25820497681395
H            4.34028492849386        1.03142589345962       -0.89396697898774
