111
 energy: -147.010273568971 gnorm: 0.000481828656 xtb: 6.6.1 (8d0f1dd)
C           -3.32539665544476       -0.91666350120728       -1.45673597390038
C           -4.20161670305161       -1.33331134545088       -0.42992350414181
C           -4.97521954367475       -0.22142449968678       -0.03957237976615
C           -4.56701893810230        0.88605199375469       -0.81480551296685
C           -3.55351944537040        0.44984165305700       -1.69524088902200
H           -2.64671985594736       -1.53613573728902       -2.00785660136238
H           -4.30087713167945       -2.32899836524081       -0.04628934070107
H           -5.74699472966358       -0.21812427934280        0.70632034938252
H           -4.98601571890952        1.87402316355112       -0.76808209573101
H           -3.08129098506732        1.03351508597756       -2.46237464642249
Fe          -3.00157962386857        0.17530652720914        0.29766270568696
C           -2.40538257954439        1.80386905709280        1.35475072200816
C           -1.29778712513200        1.18421014090200        0.72022759248795
C           -1.20608864856079       -0.14663404567925        1.23561207235137
C           -2.28006543516732       -0.33975673973390        2.14727329537822
C           -3.00588583850066        0.86283347073331        2.22001557978582
H           -2.75476466238283        2.80913904999715        1.21811209192945
H           -2.47735731986362       -1.23247795758923        2.70893264709599
H           -3.87042978987508        1.03878724939009        2.82902853801048
C           -0.53509962562828        1.68219330300984       -0.47012347171456
H           -0.58940183275252        0.86295104965433       -1.20390077321976
P            0.15271863493827       -1.24074181347783        0.86262470593455
C           -1.29898131293649        2.86968511191350       -1.05930262705145
H           -1.00588891631432        3.08198099805310       -2.08101933317318
H           -2.35214432344711        2.59757232677954       -1.07285109710617
H           -1.19618594684087        3.76932105141820       -0.46371258237898
P            1.33914573209830        1.74884505301126       -0.15975196515867
Rh           2.17649532358981       -0.41366990085799        0.22960081263308
C            2.00691207980188        2.71286892627979       -1.66942205537771
C            1.56376543816494        2.75797058445254        1.44048650034332
C            0.56411686409066        3.89805219599281        1.60896394965112
H           -0.45114506605527        3.52066810037807        1.67415818946003
H            0.78109826421952        4.42236125608021        2.53902384230533
H            0.63531977434268        4.61950303703843        0.80085163947535
C            2.98318565053438        3.31423967457153        1.54675056086874
H            3.13434000641172        3.71988158983964        2.54634043373849
H            3.72126309113498        2.53026197554562        1.39429965284007
H            3.15488072823659        4.12160822946178        0.84114073074554
C            1.37457786288754        1.75163241308684        2.58104484398184
H            1.61159964863546        2.22066205184106        3.53463926273402
H            0.34510786904179        1.40510167363970        2.62291147858865
H            2.04158616466769        0.88887522777176        2.44895799415620
C            1.50206824774836        1.91780768479228       -2.88058872982022
H            0.44534817245553        2.07257423829191       -3.07075334452171
H            2.04681775083434        2.21570055350385       -3.77468272245550
H            1.66951881652894        0.84965397693413       -2.72047495337923
C            3.53854270418742        2.68033717191749       -1.72376652039896
H            3.99479825227930        3.14098129166702       -0.85530435612310
H            3.91472096226476        1.67111713157664       -1.82515790391351
H            3.86565974686529        3.24152406195248       -2.59826135107316
C            1.60770544098365        4.18629194745831       -1.75792658823330
H            1.88011772600879        4.56043397297531       -2.74426361925913
H            0.55005081473864        4.36046706977068       -1.62199918357073
H            2.15218713007989        4.77687577141464       -1.02568301029074
C           -0.50787952638386       -2.31538225687561       -0.44061772137105
C           -1.59006603780028       -3.15133688740705       -0.20082076117523
C            0.07918393476194       -2.28431957411935       -1.69566604606906
C           -2.05590816856730       -3.99598719968385       -1.19360945264011
H           -2.06434604149041       -3.13521887705670        0.76870248329339
C           -0.38397390473211       -3.09317156958208       -2.72354024841629
H            0.91339437357587       -1.60589061992929       -1.87215943219432
C           -1.44064981925792       -3.96974206804182       -2.45423534205708
C            0.19155994698871       -2.31636289188344        2.32841220964111
C            0.31809693722702       -3.69501408836461        2.23918432615460
C            0.23572316260488       -1.72560801286956        3.58899250638534
C            0.43993304472386       -4.50190248889744        3.36346374488107
H            0.31908868971825       -4.16910018560082        1.26761891639550
C            0.34124366852004       -2.49332074012377        4.73049433645932
H            0.16804172720871       -0.65161313737220        3.68183108961827
C            0.42269897038061       -3.89499192930371        4.62582094023748
O           -1.96134182808641       -4.77078807908086       -3.44749364997667
O            0.54633743441016       -4.53862719323712        5.82221087207297
C            0.65031623982569       -5.97512360013832        3.15820061321287
H            1.48464945778510       -6.32893397514728        3.75983531271393
H           -0.23499782379636       -6.55195974689463        3.41954008004447
H            0.87827682709174       -6.17089686392852        2.11281269497457
C           -0.14743938750602       -5.74582254527935        6.06671917994259
H            0.43422264925870       -6.62383592254429        5.77836073468656
H           -0.30943963311993       -5.77503539750733        7.14470625285522
H           -1.11559937156229       -5.76025466573902        5.56183442896669
C            0.37532764633440       -1.86389882431265        6.08720207417611
H           -0.41342027172523       -2.27719110340282        6.71285118667224
H            1.32134897038140       -2.08537017002643        6.57760849566759
H            0.25093352276809       -0.78695037009642        6.01838385861749
C           -3.22202263119268       -4.90305765588326       -0.95910183732319
H           -4.04637824813137       -4.61589211557201       -1.60999147101904
H           -2.96647166875916       -5.93284087605584       -1.20029751798955
H           -3.54787495992150       -4.85558279531881        0.07640814299716
C           -1.21860256858119       -5.93699274283756       -3.74254400444755
H           -1.75225673191684       -6.43422579641017       -4.54947359186629
H           -0.20084184302668       -5.70580658256833       -4.06772904633293
H           -1.16801094530931       -6.60479901892569       -2.87603719449028
C            0.22291051372459       -3.00139414342533       -4.09051150961140
H            1.10751346536717       -3.63482919290761       -4.16517470048012
H           -0.49386097465542       -3.31786717181192       -4.84406627673437
H            0.52692160613435       -1.97801258894657       -4.29977384118840
C            5.30172913159794       -2.23634314334413        0.19584730074286
C            4.08326856272830       -2.22801572473296       -0.74233494107712
C            4.70022281592244       -1.17912991177963        1.13724489507170
H            6.22031756493258       -1.90656637320750       -0.28880586147104
H            5.46336352020752       -3.19892504990690        0.67966255707920
C            2.95469984528520       -2.44584202405282        0.25979127503013
C            3.95743860989056       -0.73388481568556       -1.02025557065350
H            4.10217893069270       -2.88404945241803       -1.60773519621578
C            3.33797964260990       -1.80406002309561        1.41868886523468
C            4.34096885920867       -0.08300275622811        0.13267761717849
H            5.28536285336814       -0.87499553071730        2.00015303635413
H            2.23100022963669       -3.24186740655158        0.16843670912390
H            3.91368401953302       -0.34841660098367       -2.02933789264113
H            2.95061782714701       -1.97223032111309        2.41508199025084
H            4.70779297990859        0.92746765064586        0.22194614136840
