 Entering Gaussian System, Link 0=g16
 Input=L5_CORR.inp
 Output=L5_CORR.log
 Initial command:
 /sw/arch/RHEL8/EB_production/2022/software/Gaussian/g16.c02/l1.exe "/scratch-local/adarsh.3928821/Gau-878420.inp" -scrdir="/scratch-local/adarsh.3928821/"
 Entering Link 1 = /sw/arch/RHEL8/EB_production/2022/software/Gaussian/g16.c02/l1.exe PID=    878426.
  
 Copyright (c) 1988-2021, Gaussian, Inc.  All Rights Reserved.
  
 This is part of the Gaussian(R) 16 program.  It is based on
 the Gaussian(R) 09 system (copyright 2009, Gaussian, Inc.),
 the Gaussian(R) 03 system (copyright 2003, Gaussian, Inc.),
 the Gaussian(R) 98 system (copyright 1998, Gaussian, Inc.),
 the Gaussian(R) 94 system (copyright 1995, Gaussian, Inc.),
 the Gaussian 92(TM) system (copyright 1992, Gaussian, Inc.),
 the Gaussian 90(TM) system (copyright 1990, Gaussian, Inc.),
 the Gaussian 88(TM) system (copyright 1988, Gaussian, Inc.),
 the Gaussian 86(TM) system (copyright 1986, Carnegie Mellon
 University), and the Gaussian 82(TM) system (copyright 1983,
 Carnegie Mellon University). Gaussian is a federally registered
 trademark of Gaussian, Inc.
  
 This software contains proprietary and confidential information,
 including trade secrets, belonging to Gaussian, Inc.
  
 This software is provided under written license and may be
 used, copied, transmitted, or stored only in accord with that
 written license.
  
 The following legend is applicable only to US Government
 contracts under FAR:
  
                    RESTRICTED RIGHTS LEGEND
  
 Use, reproduction and disclosure by the US Government is
 subject to restrictions as set forth in subparagraphs (a)
 and (c) of the Commercial Computer Software - Restricted
 Rights clause in FAR 52.227-19.
  
 Gaussian, Inc.
 340 Quinnipiac St., Bldg. 40, Wallingford CT 06492
  
  
 ---------------------------------------------------------------
 Warning -- This program may not be used in any manner that
 competes with the business of Gaussian, Inc. or will provide
 assistance to any competitor of Gaussian, Inc.  The licensee
 of this program is prohibited from giving any competitor of
 Gaussian, Inc. access to this program.  By using this program,
 the user acknowledges that Gaussian, Inc. is engaged in the
 business of creating and licensing software in the field of
 computational chemistry and represents and warrants to the
 licensee that it is not a competitor of Gaussian, Inc. and that
 it will not use this program in any manner prohibited above.
 ---------------------------------------------------------------
  

 Cite this work as:
 Gaussian 16, Revision C.02,
 M. J. Frisch, G. W. Trucks, H. B. Schlegel, G. E. Scuseria, 
 M. A. Robb, J. R. Cheeseman, G. Scalmani, V. Barone, 
 G. A. Petersson, H. Nakatsuji, X. Li, M. Caricato, A. V. Marenich, 
 J. Bloino, B. G. Janesko, R. Gomperts, B. Mennucci, H. P. Hratchian, 
 J. V. Ortiz, A. F. Izmaylov, J. L. Sonnenberg, D. Williams-Young, 
 F. Ding, F. Lipparini, F. Egidi, J. Goings, B. Peng, A. Petrone, 
 T. Henderson, D. Ranasinghe, V. G. Zakrzewski, J. Gao, N. Rega, 
 G. Zheng, W. Liang, M. Hada, M. Ehara, K. Toyota, R. Fukuda, 
 J. Hasegawa, M. Ishida, T. Nakajima, Y. Honda, O. Kitao, H. Nakai, 
 T. Vreven, K. Throssell, J. A. Montgomery, Jr., J. E. Peralta, 
 F. Ogliaro, M. J. Bearpark, J. J. Heyd, E. N. Brothers, K. N. Kudin, 
 V. N. Staroverov, T. A. Keith, R. Kobayashi, J. Normand, 
 K. Raghavachari, A. P. Rendell, J. C. Burant, S. S. Iyengar, 
 J. Tomasi, M. Cossi, J. M. Millam, M. Klene, C. Adamo, R. Cammi, 
 J. W. Ochterski, R. L. Martin, K. Morokuma, O. Farkas, 
 J. B. Foresman, and D. J. Fox, Gaussian, Inc., Wallingford CT, 2019.
 
 ******************************************
 Gaussian 16:  ES64L-G16RevC.02  7-Dec-2021
                26-Sep-2023 
 ******************************************
 %nprocshared=32
 Will use up to   32 processors via shared memory.
 %mem=30GB
 %chk=L5_CORR.chk
 ----------------------------------------------------------------------
 #p opt freq pop=nbo pbe1pbe/def2svpp empiricaldispersion=gd3bj integra
 l=grid=ultrafinegrid scf=(xqc,maxconventionalcycles=90) nosymm
 ----------------------------------------------------------------------
 1/18=20,19=15,26=4,38=1/1,3;
 2/9=110,12=2,15=1,17=6,18=5,40=1/2;
 3/5=43,7=202,11=2,25=1,30=1,71=1,74=-13,75=-5,124=41/1,2,3;
 4//1;
 5/5=2,8=3,13=1,38=5,85=90/2,8;
 6/7=2,8=2,9=2,10=2,28=1,40=1/1,7;
 7/30=1/1,2,3,16;
 1/18=20,19=15,26=4/3(2);
 2/9=110,15=1/2;
 99//99;
 2/9=110,15=1/2;
 3/5=43,7=202,11=2,25=1,30=1,71=1,74=-13,75=-5,124=41/1,2,3;
 4/5=5,16=3,69=1/1;
 5/5=2,8=3,13=1,38=5,85=90/2,8;
 7/30=1/1,2,3,16;
 1/18=20,19=15,26=4/3(-5);
 2/9=110,15=1/2;
 6/7=2,8=2,9=2,10=2,19=2,28=1,40=1/1,7;
 99/9=1/99;
 Leave Link    1 at Tue Sep 26 12:00:48 2023, MaxMem=  4026531840 cpu:               0.6 elap:               0.7
 (Enter /sw/arch/RHEL8/EB_production/2022/software/Gaussian/g16.c02/l101.exe)
 ----
 Cisa
 ----
 Symbolic Z-matrix:
 Charge =  1 Multiplicity = 1
 P                     0.15639   0.96604  -0.80758 
 C                     1.1977    0.54283  -2.23867 
 C                     0.60266  -0.09941  -3.33075 
 C                     1.38125  -0.50891  -4.41353 
 C                     2.75449  -0.26617  -4.41339 
 C                     3.35029   0.38438  -3.33024 
 C                     2.57723   0.78395  -2.2434 
 C                     0.71201   2.60828  -0.2415 
 C                     0.44575   3.01159   1.07566 
 C                     0.70728   4.31919   1.47687 
 C                     1.23136   5.24147   0.56946 
 C                     1.49016   4.84953  -0.74309 
 C                     1.22812   3.54128  -1.15048 
 P                    -2.63178  -0.71776  -0.09327 
 C                    -1.26333  -1.97778   0.10114 
 C                    -1.71767  -3.31174   0.67607 
 C                     0.58214  -0.15195   0.54475 
 C                    -0.16271  -1.33832   0.89832 
 C                     0.33407  -1.78824   2.15773 
 C                     1.38708  -0.92498   2.56885 
 C                     1.55298   0.07693   1.5773 
 H                    -0.47972  -0.27688  -3.32208 
 H                     3.04885   1.28381  -1.39204 
 H                     0.03405   2.29823   1.79524 
 H                     1.428     3.24946  -2.18545 
 H                    -0.90592  -2.13151  -0.93311 
 H                    -0.86676  -4.01362   0.70496 
 H                    -2.5152   -3.76237   0.06477 
 H                    -2.09429  -3.19944   1.70473 
 Rh                   -2.08601   1.12604  -1.35626 
 H                     2.28082   0.88751   1.5943 
 C                    -3.57547   0.53245   4.21889 
 C                    -3.98267  -0.74308   3.80459 
 C                    -3.72905  -1.1264    2.48528 
 C                    -3.08858  -0.24901   1.60043 
 C                    -2.71407   1.02506   2.03681 
 C                    -2.94253   1.43036   3.35583 
 H                    -4.05583  -2.11294   2.14412 
 H                    -2.24321   1.71358   1.32459 
 C                    -6.17367  -2.77468  -2.1635 
 C                    -6.43191  -1.95396  -1.06354 
 C                    -5.34533  -1.37433  -0.39433 
 C                    -4.03692  -1.60961  -0.82182 
 C                    -3.80858  -2.42295  -1.94121 
 C                    -4.8714   -3.02279  -2.61888 
 H                    -5.53165  -0.73403   0.47332 
 H                    -2.78793  -2.59233  -2.3016 
 Fe                    1.81846  -1.76425   0.7529 
 C                     2.72814  -3.58732   0.90224 
 C                     3.69858  -2.54518   0.93062 
 C                     3.58549  -1.80466  -0.28067 
 C                     2.54684  -2.39212  -1.06099 
 C                     2.01829  -3.49271  -0.33035 
 H                     2.54482  -4.31321   1.6948 
 H                     4.18305  -0.93704  -0.55677 
 H                     2.20797  -2.04873  -2.03814 
 H                     1.20395  -4.14236  -0.65281 
 H                     3.36619  -0.58308  -5.26288 
 H                     1.43876   6.26722   0.88707 
 H                    -3.77014   0.83854   5.25292 
 H                    -7.01552  -3.23892  -2.68868 
 C                    -4.67723  -1.66852   4.76239 
 H                    -5.61114  -1.21936   5.14367 
 H                    -4.93356  -2.62783   4.28504 
 H                    -4.04103  -1.8849    5.63861 
 C                    -2.49181   2.78234   3.83133 
 H                    -3.18715   3.20415   4.57562 
 H                    -1.49884   2.71567   4.31395 
 H                    -2.40664   3.4963    2.99532 
 C                    -7.83951  -1.67252  -0.62213 
 H                    -7.8886   -1.45111   0.45657 
 H                    -8.25019  -0.79655  -1.15755 
 H                    -8.50649  -2.5249   -0.83026 
 C                    -4.63339  -3.92603  -3.7948 
 H                    -5.29686  -3.67053  -4.63847 
 H                    -3.59111  -3.86727  -4.14778 
 H                    -4.83773  -4.97909  -3.52958 
 H                     1.98948  -1.03809   3.47005 
 H                    -0.00003  -2.67424   2.6948 
 H                     4.38641  -2.33384   1.74962 
 H                     0.50088   4.61959   2.50836 
 H                     1.90105   5.56645  -1.45965 
 H                     4.42724   0.57569  -3.33245 
 H                     0.91326  -1.01466  -5.26283 
 C                    -4.05927   3.4424   -3.31413 
 C                    -3.2748    2.16056  -3.66747 
 C                    -3.68621   3.37565  -1.81775 
 H                    -5.14483   3.34779  -3.4919 
 H                    -3.66521   4.34186  -3.81877 
 C                    -1.90204   2.50212  -3.0639 
 C                    -3.85912   1.18636  -2.63154 
 H                    -3.27686   1.81875  -4.70997 
 C                    -2.15833   3.24762  -1.92125 
 C                    -4.11345   1.93713  -1.48912 
 H                    -4.06192   4.16035  -1.14955 
 H                    -0.94799   2.40643  -3.58785 
 H                    -4.23881   0.18676  -2.85619 
 H                    -1.44378   3.8457   -1.35137 
 H                    -4.74016   1.65111  -0.64121 
 
 ITRead=  0  0  0  0  0  0  0  0  0  0  0  0  0  0  0  0  0  0  0  0
 ITRead=  0  0  0  0  0  0  0  0  0  0  0  0  0  0  0  0  0  0  0  0
 ITRead=  0  0  0  0  0  0  0  0  0  0  0  0  0  0  0  0  0  0  0  0
 ITRead=  0  0  0  0  0  0  0  0  0  0  0  0  0  0  0  0  0  0  0  0
 ITRead=  0  0  0  0  0  0  0  0  0  0  0  0  0  0  0  0  0  0  0
 MicOpt= -1 -1 -1 -1 -1 -1 -1 -1 -1 -1 -1 -1 -1 -1 -1 -1 -1 -1 -1 -1
 MicOpt= -1 -1 -1 -1 -1 -1 -1 -1 -1 -1 -1 -1 -1 -1 -1 -1 -1 -1 -1 -1
 MicOpt= -1 -1 -1 -1 -1 -1 -1 -1 -1 -1 -1 -1 -1 -1 -1 -1 -1 -1 -1 -1
 MicOpt= -1 -1 -1 -1 -1 -1 -1 -1 -1 -1 -1 -1 -1 -1 -1 -1 -1 -1 -1 -1
 MicOpt= -1 -1 -1 -1 -1 -1 -1 -1 -1 -1 -1 -1 -1 -1 -1 -1 -1 -1 -1
 NAtoms=     99 NQM=       99 NQMF=       0 NMMI=      0 NMMIF=      0
                NMic=       0 NMicF=      0.
                    Isotopes and Nuclear Properties:
 (Nuclear quadrupole moments (NQMom) in fm**2, nuclear magnetic moments (NMagM)
  in nuclear magnetons)

  Atom         1           2           3           4           5           6           7           8           9          10
 IAtWgt=          31          12          12          12          12          12          12          12          12          12
 AtmWgt=  30.9737634  12.0000000  12.0000000  12.0000000  12.0000000  12.0000000  12.0000000  12.0000000  12.0000000  12.0000000
 NucSpn=           1           0           0           0           0           0           0           0           0           0
 AtZEff=  -0.0000000  -0.0000000  -0.0000000  -0.0000000  -0.0000000  -0.0000000  -0.0000000  -0.0000000  -0.0000000  -0.0000000
 NQMom=    0.0000000   0.0000000   0.0000000   0.0000000   0.0000000   0.0000000   0.0000000   0.0000000   0.0000000   0.0000000
 NMagM=    1.1316000   0.0000000   0.0000000   0.0000000   0.0000000   0.0000000   0.0000000   0.0000000   0.0000000   0.0000000
 AtZNuc=  15.0000000   6.0000000   6.0000000   6.0000000   6.0000000   6.0000000   6.0000000   6.0000000   6.0000000   6.0000000

  Atom        11          12          13          14          15          16          17          18          19          20
 IAtWgt=          12          12          12          31          12          12          12          12          12          12
 AtmWgt=  12.0000000  12.0000000  12.0000000  30.9737634  12.0000000  12.0000000  12.0000000  12.0000000  12.0000000  12.0000000
 NucSpn=           0           0           0           1           0           0           0           0           0           0
 AtZEff=  -0.0000000  -0.0000000  -0.0000000  -0.0000000  -0.0000000  -0.0000000  -0.0000000  -0.0000000  -0.0000000  -0.0000000
 NQMom=    0.0000000   0.0000000   0.0000000   0.0000000   0.0000000   0.0000000   0.0000000   0.0000000   0.0000000   0.0000000
 NMagM=    0.0000000   0.0000000   0.0000000   1.1316000   0.0000000   0.0000000   0.0000000   0.0000000   0.0000000   0.0000000
 AtZNuc=   6.0000000   6.0000000   6.0000000  15.0000000   6.0000000   6.0000000   6.0000000   6.0000000   6.0000000   6.0000000

  Atom        21          22          23          24          25          26          27          28          29          30
 IAtWgt=          12           1           1           1           1           1           1           1           1         103
 AtmWgt=  12.0000000   1.0078250   1.0078250   1.0078250   1.0078250   1.0078250   1.0078250   1.0078250   1.0078250 102.9048000
 NucSpn=           0           1           1           1           1           1           1           1           1           1
 AtZEff=  -0.0000000  -0.0000000  -0.0000000  -0.0000000  -0.0000000  -0.0000000  -0.0000000  -0.0000000  -0.0000000  -0.0000000
 NQMom=    0.0000000   0.0000000   0.0000000   0.0000000   0.0000000   0.0000000   0.0000000   0.0000000   0.0000000   0.0000000
 NMagM=    0.0000000   2.7928460   2.7928460   2.7928460   2.7928460   2.7928460   2.7928460   2.7928460   2.7928460  -0.0884000
 AtZNuc=   6.0000000   1.0000000   1.0000000   1.0000000   1.0000000   1.0000000   1.0000000   1.0000000   1.0000000  45.0000000

  Atom        31          32          33          34          35          36          37          38          39          40
 IAtWgt=           1          12          12          12          12          12          12           1           1          12
 AtmWgt=   1.0078250  12.0000000  12.0000000  12.0000000  12.0000000  12.0000000  12.0000000   1.0078250   1.0078250  12.0000000
 NucSpn=           1           0           0           0           0           0           0           1           1           0
 AtZEff=  -0.0000000  -0.0000000  -0.0000000  -0.0000000  -0.0000000  -0.0000000  -0.0000000  -0.0000000  -0.0000000  -0.0000000
 NQMom=    0.0000000   0.0000000   0.0000000   0.0000000   0.0000000   0.0000000   0.0000000   0.0000000   0.0000000   0.0000000
 NMagM=    2.7928460   0.0000000   0.0000000   0.0000000   0.0000000   0.0000000   0.0000000   2.7928460   2.7928460   0.0000000
 AtZNuc=   1.0000000   6.0000000   6.0000000   6.0000000   6.0000000   6.0000000   6.0000000   1.0000000   1.0000000   6.0000000

  Atom        41          42          43          44          45          46          47          48          49          50
 IAtWgt=          12          12          12          12          12           1           1          56          12          12
 AtmWgt=  12.0000000  12.0000000  12.0000000  12.0000000  12.0000000   1.0078250   1.0078250  55.9349393  12.0000000  12.0000000
 NucSpn=           0           0           0           0           0           1           1           0           0           0
 AtZEff=  -0.0000000  -0.0000000  -0.0000000  -0.0000000  -0.0000000  -0.0000000  -0.0000000  -0.0000000  -0.0000000  -0.0000000
 NQMom=    0.0000000   0.0000000   0.0000000   0.0000000   0.0000000   0.0000000   0.0000000   0.0000000   0.0000000   0.0000000
 NMagM=    0.0000000   0.0000000   0.0000000   0.0000000   0.0000000   2.7928460   2.7928460   0.0000000   0.0000000   0.0000000
 AtZNuc=   6.0000000   6.0000000   6.0000000   6.0000000   6.0000000   1.0000000   1.0000000  26.0000000   6.0000000   6.0000000

  Atom        51          52          53          54          55          56          57          58          59          60
 IAtWgt=          12          12          12           1           1           1           1           1           1           1
 AtmWgt=  12.0000000  12.0000000  12.0000000   1.0078250   1.0078250   1.0078250   1.0078250   1.0078250   1.0078250   1.0078250
 NucSpn=           0           0           0           1           1           1           1           1           1           1
 AtZEff=  -0.0000000  -0.0000000  -0.0000000  -0.0000000  -0.0000000  -0.0000000  -0.0000000  -0.0000000  -0.0000000  -0.0000000
 NQMom=    0.0000000   0.0000000   0.0000000   0.0000000   0.0000000   0.0000000   0.0000000   0.0000000   0.0000000   0.0000000
 NMagM=    0.0000000   0.0000000   0.0000000   2.7928460   2.7928460   2.7928460   2.7928460   2.7928460   2.7928460   2.7928460
 AtZNuc=   6.0000000   6.0000000   6.0000000   1.0000000   1.0000000   1.0000000   1.0000000   1.0000000   1.0000000   1.0000000

  Atom        61          62          63          64          65          66          67          68          69          70
 IAtWgt=           1          12           1           1           1          12           1           1           1          12
 AtmWgt=   1.0078250  12.0000000   1.0078250   1.0078250   1.0078250  12.0000000   1.0078250   1.0078250   1.0078250  12.0000000
 NucSpn=           1           0           1           1           1           0           1           1           1           0
 AtZEff=  -0.0000000  -0.0000000  -0.0000000  -0.0000000  -0.0000000  -0.0000000  -0.0000000  -0.0000000  -0.0000000  -0.0000000
 NQMom=    0.0000000   0.0000000   0.0000000   0.0000000   0.0000000   0.0000000   0.0000000   0.0000000   0.0000000   0.0000000
 NMagM=    2.7928460   0.0000000   2.7928460   2.7928460   2.7928460   0.0000000   2.7928460   2.7928460   2.7928460   0.0000000
 AtZNuc=   1.0000000   6.0000000   1.0000000   1.0000000   1.0000000   6.0000000   1.0000000   1.0000000   1.0000000   6.0000000

  Atom        71          72          73          74          75          76          77          78          79          80
 IAtWgt=           1           1           1          12           1           1           1           1           1           1
 AtmWgt=   1.0078250   1.0078250   1.0078250  12.0000000   1.0078250   1.0078250   1.0078250   1.0078250   1.0078250   1.0078250
 NucSpn=           1           1           1           0           1           1           1           1           1           1
 AtZEff=  -0.0000000  -0.0000000  -0.0000000  -0.0000000  -0.0000000  -0.0000000  -0.0000000  -0.0000000  -0.0000000  -0.0000000
 NQMom=    0.0000000   0.0000000   0.0000000   0.0000000   0.0000000   0.0000000   0.0000000   0.0000000   0.0000000   0.0000000
 NMagM=    2.7928460   2.7928460   2.7928460   0.0000000   2.7928460   2.7928460   2.7928460   2.7928460   2.7928460   2.7928460
 AtZNuc=   1.0000000   1.0000000   1.0000000   6.0000000   1.0000000   1.0000000   1.0000000   1.0000000   1.0000000   1.0000000

  Atom        81          82          83          84          85          86          87          88          89          90
 IAtWgt=           1           1           1           1          12          12          12           1           1          12
 AtmWgt=   1.0078250   1.0078250   1.0078250   1.0078250  12.0000000  12.0000000  12.0000000   1.0078250   1.0078250  12.0000000
 NucSpn=           1           1           1           1           0           0           0           1           1           0
 AtZEff=  -0.0000000  -0.0000000  -0.0000000  -0.0000000  -0.0000000  -0.0000000  -0.0000000  -0.0000000  -0.0000000  -0.0000000
 NQMom=    0.0000000   0.0000000   0.0000000   0.0000000   0.0000000   0.0000000   0.0000000   0.0000000   0.0000000   0.0000000
 NMagM=    2.7928460   2.7928460   2.7928460   2.7928460   0.0000000   0.0000000   0.0000000   2.7928460   2.7928460   0.0000000
 AtZNuc=   1.0000000   1.0000000   1.0000000   1.0000000   6.0000000   6.0000000   6.0000000   1.0000000   1.0000000   6.0000000

  Atom        91          92          93          94          95          96          97          98          99
 IAtWgt=          12           1          12          12           1           1           1           1           1
 AtmWgt=  12.0000000   1.0078250  12.0000000  12.0000000   1.0078250   1.0078250   1.0078250   1.0078250   1.0078250
 NucSpn=           0           1           0           0           1           1           1           1           1
 AtZEff=  -0.0000000  -0.0000000  -0.0000000  -0.0000000  -0.0000000  -0.0000000  -0.0000000  -0.0000000  -0.0000000
 NQMom=    0.0000000   0.0000000   0.0000000   0.0000000   0.0000000   0.0000000   0.0000000   0.0000000   0.0000000
 NMagM=    0.0000000   2.7928460   0.0000000   0.0000000   2.7928460   2.7928460   2.7928460   2.7928460   2.7928460
 AtZNuc=   6.0000000   1.0000000   6.0000000   6.0000000   1.0000000   1.0000000   1.0000000   1.0000000   1.0000000
 Leave Link  101 at Tue Sep 26 12:00:48 2023, MaxMem=  4026531840 cpu:               0.3 elap:               0.2
 (Enter /sw/arch/RHEL8/EB_production/2022/software/Gaussian/g16.c02/l103.exe)

 GradGradGradGradGradGradGradGradGradGradGradGradGradGradGradGradGradGrad
 Berny optimization.
 Initialization pass.
                           ----------------------------
                           !    Initial Parameters    !
                           ! (Angstroms and Degrees)  !
 --------------------------                            --------------------------
 ! Name  Definition              Value          Derivative Info.                !
 --------------------------------------------------------------------------------
 ! R1    R(1,2)                  1.8197         estimate D2E/DX2                !
 ! R2    R(1,8)                  1.8238         estimate D2E/DX2                !
 ! R3    R(1,17)                 1.8055         estimate D2E/DX2                !
 ! R4    R(1,30)                 2.3141         estimate D2E/DX2                !
 ! R5    R(2,3)                  1.3997         estimate D2E/DX2                !
 ! R6    R(2,7)                  1.4005         estimate D2E/DX2                !
 ! R7    R(3,4)                  1.3951         estimate D2E/DX2                !
 ! R8    R(3,22)                 1.0969         estimate D2E/DX2                !
 ! R9    R(4,5)                  1.3945         estimate D2E/DX2                !
 ! R10   R(4,84)                 1.0937         estimate D2E/DX2                !
 ! R11   R(5,6)                  1.3969         estimate D2E/DX2                !
 ! R12   R(5,58)                 1.0937         estimate D2E/DX2                !
 ! R13   R(6,7)                  1.3923         estimate D2E/DX2                !
 ! R14   R(6,83)                 1.0938         estimate D2E/DX2                !
 ! R15   R(7,23)                 1.0941         estimate D2E/DX2                !
 ! R16   R(8,9)                  1.403          estimate D2E/DX2                !
 ! R17   R(8,13)                 1.4011         estimate D2E/DX2                !
 ! R18   R(9,10)                 1.3926         estimate D2E/DX2                !
 ! R19   R(9,24)                 1.0937         estimate D2E/DX2                !
 ! R20   R(10,11)                1.3959         estimate D2E/DX2                !
 ! R21   R(10,81)                1.094          estimate D2E/DX2                !
 ! R22   R(11,12)                1.3941         estimate D2E/DX2                !
 ! R23   R(11,59)                1.0936         estimate D2E/DX2                !
 ! R24   R(12,13)                1.395          estimate D2E/DX2                !
 ! R25   R(12,82)                1.0937         estimate D2E/DX2                !
 ! R26   R(13,25)                1.0937         estimate D2E/DX2                !
 ! R27   R(14,15)                1.8703         estimate D2E/DX2                !
 ! R28   R(14,30)                2.3006         estimate D2E/DX2                !
 ! R29   R(14,35)                1.8158         estimate D2E/DX2                !
 ! R30   R(14,43)                1.8168         estimate D2E/DX2                !
 ! R31   R(15,16)                1.522          estimate D2E/DX2                !
 ! R32   R(15,18)                1.5019         estimate D2E/DX2                !
 ! R33   R(15,26)                1.105          estimate D2E/DX2                !
 ! R34   R(16,27)                1.1034         estimate D2E/DX2                !
 ! R35   R(16,28)                1.1013         estimate D2E/DX2                !
 ! R36   R(16,29)                1.1012         estimate D2E/DX2                !
 ! R37   R(17,18)                1.4447         estimate D2E/DX2                !
 ! R38   R(17,21)                1.4356         estimate D2E/DX2                !
 ! R39   R(17,48)                2.0424         estimate D2E/DX2                !
 ! R40   R(18,19)                1.4266         estimate D2E/DX2                !
 ! R41   R(18,48)                2.0316         estimate D2E/DX2                !
 ! R42   R(19,20)                1.4223         estimate D2E/DX2                !
 ! R43   R(19,48)                2.0439         estimate D2E/DX2                !
 ! R44   R(19,79)                1.0886         estimate D2E/DX2                !
 ! R45   R(20,21)                1.4193         estimate D2E/DX2                !
 ! R46   R(20,48)                2.0465         estimate D2E/DX2                !
 ! R47   R(20,78)                1.0899         estimate D2E/DX2                !
 ! R48   R(21,31)                1.0895         estimate D2E/DX2                !
 ! R49   R(21,48)                2.0347         estimate D2E/DX2                !
 ! R50   R(30,90)                2.2008         estimate D2E/DX2                !
 ! R51   R(30,91)                2.1849         estimate D2E/DX2                !
 ! R52   R(30,93)                2.1967         estimate D2E/DX2                !
 ! R53   R(30,94)                2.1877         estimate D2E/DX2                !
 ! R54   R(32,33)                1.4016         estimate D2E/DX2                !
 ! R55   R(32,37)                1.397          estimate D2E/DX2                !
 ! R56   R(32,60)                1.0958         estimate D2E/DX2                !
 ! R57   R(33,34)                1.3971         estimate D2E/DX2                !
 ! R58   R(33,62)                1.5021         estimate D2E/DX2                !
 ! R59   R(34,35)                1.4011         estimate D2E/DX2                !
 ! R60   R(34,38)                1.0938         estimate D2E/DX2                !
 ! R61   R(35,36)                1.3978         estimate D2E/DX2                !
 ! R62   R(36,37)                1.3987         estimate D2E/DX2                !
 ! R63   R(36,39)                1.0968         estimate D2E/DX2                !
 ! R64   R(37,66)                1.5024         estimate D2E/DX2                !
 ! R65   R(40,41)                1.3965         estimate D2E/DX2                !
 ! R66   R(40,45)                1.4017         estimate D2E/DX2                !
 ! R67   R(40,61)                1.0955         estimate D2E/DX2                !
 ! R68   R(41,42)                1.4016         estimate D2E/DX2                !
 ! R69   R(41,70)                1.5018         estimate D2E/DX2                !
 ! R70   R(42,43)                1.3964         estimate D2E/DX2                !
 ! R71   R(42,46)                1.0943         estimate D2E/DX2                !
 ! R72   R(43,44)                1.4024         estimate D2E/DX2                !
 ! R73   R(44,45)                1.3959         estimate D2E/DX2                !
 ! R74   R(44,47)                1.0956         estimate D2E/DX2                !
 ! R75   R(45,74)                1.5018         estimate D2E/DX2                !
 ! R76   R(48,49)                2.0429         estimate D2E/DX2                !
 ! R77   R(48,50)                2.0436         estimate D2E/DX2                !
 ! R78   R(48,51)                2.0475         estimate D2E/DX2                !
 ! R79   R(48,52)                2.053          estimate D2E/DX2                !
 ! R80   R(48,53)                2.0496         estimate D2E/DX2                !
 ! R81   R(49,50)                1.4243         estimate D2E/DX2                !
 ! R82   R(49,53)                1.4255         estimate D2E/DX2                !
 ! R83   R(49,54)                1.0903         estimate D2E/DX2                !
 ! R84   R(50,51)                1.4242         estimate D2E/DX2                !
 ! R85   R(50,80)                1.0902         estimate D2E/DX2                !
 ! R86   R(51,52)                1.4258         estimate D2E/DX2                !
 ! R87   R(51,55)                1.0891         estimate D2E/DX2                !
 ! R88   R(52,53)                1.4228         estimate D2E/DX2                !
 ! R89   R(52,56)                1.0898         estimate D2E/DX2                !
 ! R90   R(53,57)                1.0905         estimate D2E/DX2                !
 ! R91   R(62,63)                1.1042         estimate D2E/DX2                !
 ! R92   R(62,64)                1.1017         estimate D2E/DX2                !
 ! R93   R(62,65)                1.1042         estimate D2E/DX2                !
 ! R94   R(66,67)                1.1025         estimate D2E/DX2                !
 ! R95   R(66,68)                1.1061         estimate D2E/DX2                !
 ! R96   R(66,69)                1.1027         estimate D2E/DX2                !
 ! R97   R(70,71)                1.1023         estimate D2E/DX2                !
 ! R98   R(70,72)                1.1057         estimate D2E/DX2                !
 ! R99   R(70,73)                1.1021         estimate D2E/DX2                !
 ! R100  R(74,75)                1.1033         estimate D2E/DX2                !
 ! R101  R(74,76)                1.102          estimate D2E/DX2                !
 ! R102  R(74,77)                1.105          estimate D2E/DX2                !
 ! R103  R(85,86)                1.5438         estimate D2E/DX2                !
 ! R104  R(85,87)                1.5436         estimate D2E/DX2                !
 ! R105  R(85,88)                1.1041         estimate D2E/DX2                !
 ! R106  R(85,89)                1.1041         estimate D2E/DX2                !
 ! R107  R(86,90)                1.538          estimate D2E/DX2                !
 ! R108  R(86,91)                1.5374         estimate D2E/DX2                !
 ! R109  R(86,92)                1.0971         estimate D2E/DX2                !
 ! R110  R(87,93)                1.5367         estimate D2E/DX2                !
 ! R111  R(87,94)                1.5362         estimate D2E/DX2                !
 ! R112  R(87,95)                1.097          estimate D2E/DX2                !
 ! R113  R(90,93)                1.3882         estimate D2E/DX2                !
 ! R114  R(90,96)                1.0926         estimate D2E/DX2                !
 ! R115  R(91,94)                1.3905         estimate D2E/DX2                !
 ! R116  R(91,97)                1.0926         estimate D2E/DX2                !
 ! R117  R(93,98)                1.0923         estimate D2E/DX2                !
 ! R118  R(94,99)                1.0925         estimate D2E/DX2                !
 ! A1    A(2,1,8)              106.2115         estimate D2E/DX2                !
 ! A2    A(2,1,17)             108.0646         estimate D2E/DX2                !
 ! A3    A(2,1,30)             112.5888         estimate D2E/DX2                !
 ! A4    A(8,1,17)             104.6702         estimate D2E/DX2                !
 ! A5    A(8,1,30)             107.8514         estimate D2E/DX2                !
 ! A6    A(17,1,30)            116.6732         estimate D2E/DX2                !
 ! A7    A(1,2,3)              118.4917         estimate D2E/DX2                !
 ! A8    A(1,2,7)              121.7554         estimate D2E/DX2                !
 ! A9    A(3,2,7)              119.6784         estimate D2E/DX2                !
 ! A10   A(2,3,4)              120.1972         estimate D2E/DX2                !
 ! A11   A(2,3,22)             119.1811         estimate D2E/DX2                !
 ! A12   A(4,3,22)             120.6216         estimate D2E/DX2                !
 ! A13   A(3,4,5)              119.894          estimate D2E/DX2                !
 ! A14   A(3,4,84)             119.9757         estimate D2E/DX2                !
 ! A15   A(5,4,84)             120.1295         estimate D2E/DX2                !
 ! A16   A(4,5,6)              120.0756         estimate D2E/DX2                !
 ! A17   A(4,5,58)             120.0148         estimate D2E/DX2                !
 ! A18   A(6,5,58)             119.9094         estimate D2E/DX2                !
 ! A19   A(5,6,7)              120.1389         estimate D2E/DX2                !
 ! A20   A(5,6,83)             119.9883         estimate D2E/DX2                !
 ! A21   A(7,6,83)             119.8719         estimate D2E/DX2                !
 ! A22   A(2,7,6)              120.0114         estimate D2E/DX2                !
 ! A23   A(2,7,23)             120.0426         estimate D2E/DX2                !
 ! A24   A(6,7,23)             119.9458         estimate D2E/DX2                !
 ! A25   A(1,8,9)              119.4998         estimate D2E/DX2                !
 ! A26   A(1,8,13)             120.6958         estimate D2E/DX2                !
 ! A27   A(9,8,13)             119.1795         estimate D2E/DX2                !
 ! A28   A(8,9,10)             120.3153         estimate D2E/DX2                !
 ! A29   A(8,9,24)             120.1073         estimate D2E/DX2                !
 ! A30   A(10,9,24)            119.577          estimate D2E/DX2                !
 ! A31   A(9,10,11)            120.2392         estimate D2E/DX2                !
 ! A32   A(9,10,81)            119.6075         estimate D2E/DX2                !
 ! A33   A(11,10,81)           120.1532         estimate D2E/DX2                !
 ! A34   A(10,11,12)           119.7339         estimate D2E/DX2                !
 ! A35   A(10,11,59)           120.1384         estimate D2E/DX2                !
 ! A36   A(12,11,59)           120.1277         estimate D2E/DX2                !
 ! A37   A(11,12,13)           120.2481         estimate D2E/DX2                !
 ! A38   A(11,12,82)           120.1522         estimate D2E/DX2                !
 ! A39   A(13,12,82)           119.5997         estimate D2E/DX2                !
 ! A40   A(8,13,12)            120.2787         estimate D2E/DX2                !
 ! A41   A(8,13,25)            120.2349         estimate D2E/DX2                !
 ! A42   A(12,13,25)           119.4864         estimate D2E/DX2                !
 ! A43   A(15,14,30)           115.0513         estimate D2E/DX2                !
 ! A44   A(15,14,35)           105.1312         estimate D2E/DX2                !
 ! A45   A(15,14,43)           106.0727         estimate D2E/DX2                !
 ! A46   A(30,14,35)           111.3994         estimate D2E/DX2                !
 ! A47   A(30,14,43)           110.9016         estimate D2E/DX2                !
 ! A48   A(35,14,43)           107.8308         estimate D2E/DX2                !
 ! A49   A(14,15,16)           114.2878         estimate D2E/DX2                !
 ! A50   A(14,15,18)           107.7285         estimate D2E/DX2                !
 ! A51   A(14,15,26)           103.4788         estimate D2E/DX2                !
 ! A52   A(16,15,18)           113.0433         estimate D2E/DX2                !
 ! A53   A(16,15,26)           109.1584         estimate D2E/DX2                !
 ! A54   A(18,15,26)           108.6019         estimate D2E/DX2                !
 ! A55   A(15,16,27)           109.7066         estimate D2E/DX2                !
 ! A56   A(15,16,28)           111.4164         estimate D2E/DX2                !
 ! A57   A(15,16,29)           111.4434         estimate D2E/DX2                !
 ! A58   A(27,16,28)           108.2236         estimate D2E/DX2                !
 ! A59   A(27,16,29)           107.7073         estimate D2E/DX2                !
 ! A60   A(28,16,29)           108.2145         estimate D2E/DX2                !
 ! A61   A(1,17,18)            124.7639         estimate D2E/DX2                !
 ! A62   A(1,17,21)            126.8296         estimate D2E/DX2                !
 ! A63   A(1,17,48)            135.0627         estimate D2E/DX2                !
 ! A64   A(18,17,21)           107.67           estimate D2E/DX2                !
 ! A65   A(15,18,17)           126.6931         estimate D2E/DX2                !
 ! A66   A(15,18,19)           126.1184         estimate D2E/DX2                !
 ! A67   A(15,18,48)           125.969          estimate D2E/DX2                !
 ! A68   A(17,18,19)           107.1866         estimate D2E/DX2                !
 ! A69   A(18,19,20)           108.7569         estimate D2E/DX2                !
 ! A70   A(18,19,79)           125.8259         estimate D2E/DX2                !
 ! A71   A(20,19,79)           125.3506         estimate D2E/DX2                !
 ! A72   A(48,19,79)           124.858          estimate D2E/DX2                !
 ! A73   A(19,20,21)           108.2424         estimate D2E/DX2                !
 ! A74   A(19,20,78)           125.8181         estimate D2E/DX2                !
 ! A75   A(21,20,78)           125.8958         estimate D2E/DX2                !
 ! A76   A(48,20,78)           125.0758         estimate D2E/DX2                !
 ! A77   A(17,21,20)           108.1117         estimate D2E/DX2                !
 ! A78   A(17,21,31)           125.5614         estimate D2E/DX2                !
 ! A79   A(20,21,31)           126.3243         estimate D2E/DX2                !
 ! A80   A(31,21,48)           126.3251         estimate D2E/DX2                !
 ! A81   A(1,30,14)             92.5388         estimate D2E/DX2                !
 ! A82   A(1,30,90)             98.4071         estimate D2E/DX2                !
 ! A83   A(1,30,91)            157.9231         estimate D2E/DX2                !
 ! A84   A(1,30,93)             99.1874         estimate D2E/DX2                !
 ! A85   A(1,30,94)            159.7299         estimate D2E/DX2                !
 ! A86   A(14,30,90)           161.2496         estimate D2E/DX2                !
 ! A87   A(14,30,91)            98.6292         estimate D2E/DX2                !
 ! A88   A(14,30,93)           155.1529         estimate D2E/DX2                !
 ! A89   A(14,30,94)            96.3514         estimate D2E/DX2                !
 ! A90   A(90,30,91)            66.2774         estimate D2E/DX2                !
 ! A91   A(90,30,94)            78.3772         estimate D2E/DX2                !
 ! A92   A(91,30,93)            78.2585         estimate D2E/DX2                !
 ! A93   A(93,30,94)            66.1592         estimate D2E/DX2                !
 ! A94   A(33,32,37)           122.2713         estimate D2E/DX2                !
 ! A95   A(33,32,60)           118.7851         estimate D2E/DX2                !
 ! A96   A(37,32,60)           118.9406         estimate D2E/DX2                !
 ! A97   A(32,33,34)           118.4309         estimate D2E/DX2                !
 ! A98   A(32,33,62)           120.4345         estimate D2E/DX2                !
 ! A99   A(34,33,62)           121.1345         estimate D2E/DX2                !
 ! A100  A(33,34,35)           120.5016         estimate D2E/DX2                !
 ! A101  A(33,34,38)           119.1942         estimate D2E/DX2                !
 ! A102  A(35,34,38)           120.2913         estimate D2E/DX2                !
 ! A103  A(14,35,34)           122.8498         estimate D2E/DX2                !
 ! A104  A(14,35,36)           117.3284         estimate D2E/DX2                !
 ! A105  A(34,35,36)           119.7423         estimate D2E/DX2                !
 ! A106  A(35,36,37)           120.9816         estimate D2E/DX2                !
 ! A107  A(35,36,39)           118.9769         estimate D2E/DX2                !
 ! A108  A(37,36,39)           120.039          estimate D2E/DX2                !
 ! A109  A(32,37,36)           118.0574         estimate D2E/DX2                !
 ! A110  A(32,37,66)           121.2505         estimate D2E/DX2                !
 ! A111  A(36,37,66)           120.6799         estimate D2E/DX2                !
 ! A112  A(41,40,45)           122.1211         estimate D2E/DX2                !
 ! A113  A(41,40,61)           118.9837         estimate D2E/DX2                !
 ! A114  A(45,40,61)           118.8951         estimate D2E/DX2                !
 ! A115  A(40,41,42)           118.4089         estimate D2E/DX2                !
 ! A116  A(40,41,70)           120.9955         estimate D2E/DX2                !
 ! A117  A(42,41,70)           120.583          estimate D2E/DX2                !
 ! A118  A(41,42,43)           120.6994         estimate D2E/DX2                !
 ! A119  A(41,42,46)           119.245          estimate D2E/DX2                !
 ! A120  A(43,42,46)           120.0554         estimate D2E/DX2                !
 ! A121  A(14,43,42)           121.2788         estimate D2E/DX2                !
 ! A122  A(14,43,44)           118.6114         estimate D2E/DX2                !
 ! A123  A(42,43,44)           119.6453         estimate D2E/DX2                !
 ! A124  A(43,44,45)           120.8467         estimate D2E/DX2                !
 ! A125  A(43,44,47)           120.2598         estimate D2E/DX2                !
 ! A126  A(45,44,47)           118.8925         estimate D2E/DX2                !
 ! A127  A(40,45,44)           118.2668         estimate D2E/DX2                !
 ! A128  A(40,45,74)           120.5361         estimate D2E/DX2                !
 ! A129  A(44,45,74)           121.1923         estimate D2E/DX2                !
 ! A130  A(17,48,19)            68.8808         estimate D2E/DX2                !
 ! A131  A(17,48,20)            68.8441         estimate D2E/DX2                !
 ! A132  A(17,48,50)           150.1621         estimate D2E/DX2                !
 ! A133  A(17,48,51)           119.1138         estimate D2E/DX2                !
 ! A134  A(17,48,52)           111.4783         estimate D2E/DX2                !
 ! A135  A(17,48,53)           132.1353         estimate D2E/DX2                !
 ! A136  A(18,48,20)            69.2037         estimate D2E/DX2                !
 ! A137  A(18,48,21)            69.7607         estimate D2E/DX2                !
 ! A138  A(18,48,49)           128.0306         estimate D2E/DX2                !
 ! A139  A(18,48,51)           151.8656         estimate D2E/DX2                !
 ! A140  A(18,48,52)           118.2506         estimate D2E/DX2                !
 ! A141  A(18,48,53)           108.0413         estimate D2E/DX2                !
 ! A142  A(19,48,21)            68.7385         estimate D2E/DX2                !
 ! A143  A(19,48,49)           105.2286         estimate D2E/DX2                !
 ! A144  A(19,48,50)           127.1493         estimate D2E/DX2                !
 ! A145  A(19,48,52)           149.4672         estimate D2E/DX2                !
 ! A146  A(19,48,53)           115.0981         estimate D2E/DX2                !
 ! A147  A(20,48,49)           113.2636         estimate D2E/DX2                !
 ! A148  A(20,48,50)           105.8708         estimate D2E/DX2                !
 ! A149  A(20,48,51)           129.6379         estimate D2E/DX2                !
 ! A150  A(20,48,53)           146.6537         estimate D2E/DX2                !
 ! A151  A(21,48,49)           146.7193         estimate D2E/DX2                !
 ! A152  A(21,48,50)           115.5049         estimate D2E/DX2                !
 ! A153  A(21,48,51)           109.5718         estimate D2E/DX2                !
 ! A154  A(21,48,52)           132.9222         estimate D2E/DX2                !
 ! A155  A(49,48,51)            68.5924         estimate D2E/DX2                !
 ! A156  A(49,48,52)            68.5116         estimate D2E/DX2                !
 ! A157  A(50,48,52)            68.5042         estimate D2E/DX2                !
 ! A158  A(50,48,53)            68.5314         estimate D2E/DX2                !
 ! A159  A(51,48,53)            68.4342         estimate D2E/DX2                !
 ! A160  A(48,49,54)           124.9194         estimate D2E/DX2                !
 ! A161  A(50,49,53)           107.9356         estimate D2E/DX2                !
 ! A162  A(50,49,54)           125.9615         estimate D2E/DX2                !
 ! A163  A(53,49,54)           126.0868         estimate D2E/DX2                !
 ! A164  A(48,50,80)           124.8693         estimate D2E/DX2                !
 ! A165  A(49,50,51)           108.0227         estimate D2E/DX2                !
 ! A166  A(49,50,80)           125.9219         estimate D2E/DX2                !
 ! A167  A(51,50,80)           126.0318         estimate D2E/DX2                !
 ! A168  A(48,51,55)           125.8583         estimate D2E/DX2                !
 ! A169  A(50,51,52)           108.0041         estimate D2E/DX2                !
 ! A170  A(50,51,55)           125.8926         estimate D2E/DX2                !
 ! A171  A(52,51,55)           126.1015         estimate D2E/DX2                !
 ! A172  A(48,52,56)           125.8401         estimate D2E/DX2                !
 ! A173  A(51,52,53)           107.9561         estimate D2E/DX2                !
 ! A174  A(51,52,56)           125.9754         estimate D2E/DX2                !
 ! A175  A(53,52,56)           126.0626         estimate D2E/DX2                !
 ! A176  A(48,53,57)           125.8646         estimate D2E/DX2                !
 ! A177  A(49,53,52)           108.0811         estimate D2E/DX2                !
 ! A178  A(49,53,57)           126.0151         estimate D2E/DX2                !
 ! A179  A(52,53,57)           125.8999         estimate D2E/DX2                !
 ! A180  A(33,62,63)           111.1394         estimate D2E/DX2                !
 ! A181  A(33,62,64)           111.5774         estimate D2E/DX2                !
 ! A182  A(33,62,65)           111.1184         estimate D2E/DX2                !
 ! A183  A(63,62,64)           107.8791         estimate D2E/DX2                !
 ! A184  A(63,62,65)           107.0377         estimate D2E/DX2                !
 ! A185  A(64,62,65)           107.893          estimate D2E/DX2                !
 ! A186  A(37,66,67)           111.6398         estimate D2E/DX2                !
 ! A187  A(37,66,68)           110.6822         estimate D2E/DX2                !
 ! A188  A(37,66,69)           111.462          estimate D2E/DX2                !
 ! A189  A(67,66,68)           107.1405         estimate D2E/DX2                !
 ! A190  A(67,66,69)           108.2305         estimate D2E/DX2                !
 ! A191  A(68,66,69)           107.4879         estimate D2E/DX2                !
 ! A192  A(41,70,71)           111.5321         estimate D2E/DX2                !
 ! A193  A(41,70,72)           110.7474         estimate D2E/DX2                !
 ! A194  A(41,70,73)           111.5167         estimate D2E/DX2                !
 ! A195  A(71,70,72)           107.3492         estimate D2E/DX2                !
 ! A196  A(71,70,73)           108.252          estimate D2E/DX2                !
 ! A197  A(72,70,73)           107.2451         estimate D2E/DX2                !
 ! A198  A(45,74,75)           111.3572         estimate D2E/DX2                !
 ! A199  A(45,74,76)           111.6315         estimate D2E/DX2                !
 ! A200  A(45,74,77)           110.8506         estimate D2E/DX2                !
 ! A201  A(75,74,76)           108.1492         estimate D2E/DX2                !
 ! A202  A(75,74,77)           107.0391         estimate D2E/DX2                !
 ! A203  A(76,74,77)           107.6135         estimate D2E/DX2                !
 ! A204  A(86,85,87)            93.6213         estimate D2E/DX2                !
 ! A205  A(86,85,88)           113.0547         estimate D2E/DX2                !
 ! A206  A(86,85,89)           112.9827         estimate D2E/DX2                !
 ! A207  A(87,85,88)           112.9545         estimate D2E/DX2                !
 ! A208  A(87,85,89)           113.0825         estimate D2E/DX2                !
 ! A209  A(88,85,89)           110.313          estimate D2E/DX2                !
 ! A210  A(85,86,90)           100.3306         estimate D2E/DX2                !
 ! A211  A(85,86,91)           100.2992         estimate D2E/DX2                !
 ! A212  A(85,86,92)           118.3735         estimate D2E/DX2                !
 ! A213  A(90,86,91)           102.4464         estimate D2E/DX2                !
 ! A214  A(90,86,92)           116.3447         estimate D2E/DX2                !
 ! A215  A(91,86,92)           116.2407         estimate D2E/DX2                !
 ! A216  A(85,87,93)           100.2882         estimate D2E/DX2                !
 ! A217  A(85,87,94)           100.4079         estimate D2E/DX2                !
 ! A218  A(85,87,95)           118.4745         estimate D2E/DX2                !
 ! A219  A(93,87,94)           102.2927         estimate D2E/DX2                !
 ! A220  A(93,87,95)           116.1764         estimate D2E/DX2                !
 ! A221  A(94,87,95)           116.3776         estimate D2E/DX2                !
 ! A222  A(30,90,86)            95.2227         estimate D2E/DX2                !
 ! A223  A(30,90,96)           112.973          estimate D2E/DX2                !
 ! A224  A(86,90,93)           106.1112         estimate D2E/DX2                !
 ! A225  A(86,90,96)           124.8698         estimate D2E/DX2                !
 ! A226  A(93,90,96)           127.08           estimate D2E/DX2                !
 ! A227  A(30,91,86)            95.8746         estimate D2E/DX2                !
 ! A228  A(30,91,97)           112.133          estimate D2E/DX2                !
 ! A229  A(86,91,94)           106.3192         estimate D2E/DX2                !
 ! A230  A(86,91,97)           124.9769         estimate D2E/DX2                !
 ! A231  A(94,91,97)           126.8212         estimate D2E/DX2                !
 ! A232  A(30,93,87)            95.5016         estimate D2E/DX2                !
 ! A233  A(30,93,98)           111.9069         estimate D2E/DX2                !
 ! A234  A(87,93,90)           106.4832         estimate D2E/DX2                !
 ! A235  A(87,93,98)           124.7273         estimate D2E/DX2                !
 ! A236  A(90,93,98)           127.0655         estimate D2E/DX2                !
 ! A237  A(30,94,87)            95.8789         estimate D2E/DX2                !
 ! A238  A(30,94,99)           112.7948         estimate D2E/DX2                !
 ! A239  A(87,94,91)           106.199          estimate D2E/DX2                !
 ! A240  A(87,94,99)           124.8017         estimate D2E/DX2                !
 ! A241  A(91,94,99)           126.9584         estimate D2E/DX2                !
 ! A242  L(17,48,49,19,-1)     174.1094         estimate D2E/DX2                !
 ! A243  L(18,48,50,20,-1)     175.0746         estimate D2E/DX2                !
 ! A244  L(19,48,51,17,-1)     187.9945         estimate D2E/DX2                !
 ! A245  L(20,48,52,17,-1)     180.3224         estimate D2E/DX2                !
 ! A246  L(21,48,53,18,-1)     177.8019         estimate D2E/DX2                !
 ! A247  L(17,48,49,19,-2)     170.1593         estimate D2E/DX2                !
 ! A248  L(18,48,50,20,-2)     166.3838         estimate D2E/DX2                !
 ! A249  L(19,48,51,17,-2)     168.35           estimate D2E/DX2                !
 ! A250  L(20,48,52,17,-2)     169.052          estimate D2E/DX2                !
 ! A251  L(21,48,53,18,-2)     171.7154         estimate D2E/DX2                !
 ! D1    D(8,1,2,3)           -140.5502         estimate D2E/DX2                !
 ! D2    D(8,1,2,7)             42.5991         estimate D2E/DX2                !
 ! D3    D(17,1,2,3)           107.5955         estimate D2E/DX2                !
 ! D4    D(17,1,2,7)           -69.2552         estimate D2E/DX2                !
 ! D5    D(30,1,2,3)           -22.7281         estimate D2E/DX2                !
 ! D6    D(30,1,2,7)           160.4212         estimate D2E/DX2                !
 ! D7    D(2,1,8,9)           -158.2539         estimate D2E/DX2                !
 ! D8    D(2,1,8,13)            30.8817         estimate D2E/DX2                !
 ! D9    D(17,1,8,9)           -44.0537         estimate D2E/DX2                !
 ! D10   D(17,1,8,13)          145.0818         estimate D2E/DX2                !
 ! D11   D(30,1,8,9)            80.8229         estimate D2E/DX2                !
 ! D12   D(30,1,8,13)          -90.0416         estimate D2E/DX2                !
 ! D13   D(2,1,17,18)          -98.8154         estimate D2E/DX2                !
 ! D14   D(2,1,17,21)           92.2484         estimate D2E/DX2                !
 ! D15   D(2,1,17,48)           -4.6124         estimate D2E/DX2                !
 ! D16   D(8,1,17,18)          148.2959         estimate D2E/DX2                !
 ! D17   D(8,1,17,21)          -20.6403         estimate D2E/DX2                !
 ! D18   D(8,1,17,48)         -117.501          estimate D2E/DX2                !
 ! D19   D(30,1,17,18)          29.2094         estimate D2E/DX2                !
 ! D20   D(30,1,17,21)        -139.7269         estimate D2E/DX2                !
 ! D21   D(30,1,17,48)         123.4124         estimate D2E/DX2                !
 ! D22   D(2,1,30,14)          113.2488         estimate D2E/DX2                !
 ! D23   D(2,1,30,90)          -51.4838         estimate D2E/DX2                !
 ! D24   D(2,1,30,91)           -7.3425         estimate D2E/DX2                !
 ! D25   D(2,1,30,93)          -88.7335         estimate D2E/DX2                !
 ! D26   D(2,1,30,94)         -130.6674         estimate D2E/DX2                !
 ! D27   D(8,1,30,14)         -129.901          estimate D2E/DX2                !
 ! D28   D(8,1,30,90)           65.3664         estimate D2E/DX2                !
 ! D29   D(8,1,30,91)          109.5077         estimate D2E/DX2                !
 ! D30   D(8,1,30,93)           28.1167         estimate D2E/DX2                !
 ! D31   D(8,1,30,94)          -13.8171         estimate D2E/DX2                !
 ! D32   D(17,1,30,14)         -12.5436         estimate D2E/DX2                !
 ! D33   D(17,1,30,90)        -177.2762         estimate D2E/DX2                !
 ! D34   D(17,1,30,91)        -133.1349         estimate D2E/DX2                !
 ! D35   D(17,1,30,93)         145.4741         estimate D2E/DX2                !
 ! D36   D(17,1,30,94)         103.5402         estimate D2E/DX2                !
 ! D37   D(1,2,3,4)           -176.3181         estimate D2E/DX2                !
 ! D38   D(1,2,3,22)             3.5737         estimate D2E/DX2                !
 ! D39   D(7,2,3,4)              0.5998         estimate D2E/DX2                !
 ! D40   D(7,2,3,22)          -179.5084         estimate D2E/DX2                !
 ! D41   D(1,2,7,6)            176.7575         estimate D2E/DX2                !
 ! D42   D(1,2,7,23)            -3.069          estimate D2E/DX2                !
 ! D43   D(3,2,7,6)             -0.0567         estimate D2E/DX2                !
 ! D44   D(3,2,7,23)          -179.8832         estimate D2E/DX2                !
 ! D45   D(2,3,4,5)             -0.6136         estimate D2E/DX2                !
 ! D46   D(2,3,4,84)           179.7097         estimate D2E/DX2                !
 ! D47   D(22,3,4,5)           179.4962         estimate D2E/DX2                !
 ! D48   D(22,3,4,84)           -0.1805         estimate D2E/DX2                !
 ! D49   D(3,4,5,6)              0.084          estimate D2E/DX2                !
 ! D50   D(3,4,5,58)          -179.7756         estimate D2E/DX2                !
 ! D51   D(84,4,5,6)           179.7601         estimate D2E/DX2                !
 ! D52   D(84,4,5,58)           -0.0995         estimate D2E/DX2                !
 ! D53   D(4,5,6,7)              0.4591         estimate D2E/DX2                !
 ! D54   D(4,5,6,83)          -179.8868         estimate D2E/DX2                !
 ! D55   D(58,5,6,7)          -179.6811         estimate D2E/DX2                !
 ! D56   D(58,5,6,83)           -0.0271         estimate D2E/DX2                !
 ! D57   D(5,6,7,2)             -0.4714         estimate D2E/DX2                !
 ! D58   D(5,6,7,23)           179.3553         estimate D2E/DX2                !
 ! D59   D(83,6,7,2)           179.8742         estimate D2E/DX2                !
 ! D60   D(83,6,7,23)           -0.2992         estimate D2E/DX2                !
 ! D61   D(1,8,9,10)          -171.7815         estimate D2E/DX2                !
 ! D62   D(1,8,9,24)             8.4303         estimate D2E/DX2                !
 ! D63   D(13,8,9,10)           -0.7777         estimate D2E/DX2                !
 ! D64   D(13,8,9,24)          179.4341         estimate D2E/DX2                !
 ! D65   D(1,8,13,12)          171.7622         estimate D2E/DX2                !
 ! D66   D(1,8,13,25)           -8.1925         estimate D2E/DX2                !
 ! D67   D(9,8,13,12)            0.8688         estimate D2E/DX2                !
 ! D68   D(9,8,13,25)         -179.0859         estimate D2E/DX2                !
 ! D69   D(8,9,10,11)            0.2821         estimate D2E/DX2                !
 ! D70   D(8,9,10,81)         -179.6335         estimate D2E/DX2                !
 ! D71   D(24,9,10,11)        -179.9286         estimate D2E/DX2                !
 ! D72   D(24,9,10,81)           0.1559         estimate D2E/DX2                !
 ! D73   D(9,10,11,12)           0.131          estimate D2E/DX2                !
 ! D74   D(9,10,11,59)        -179.8281         estimate D2E/DX2                !
 ! D75   D(81,10,11,12)       -179.954          estimate D2E/DX2                !
 ! D76   D(81,10,11,59)          0.087          estimate D2E/DX2                !
 ! D77   D(10,11,12,13)         -0.0394         estimate D2E/DX2                !
 ! D78   D(10,11,12,82)       -179.9815         estimate D2E/DX2                !
 ! D79   D(59,11,12,13)        179.9196         estimate D2E/DX2                !
 ! D80   D(59,11,12,82)         -0.0224         estimate D2E/DX2                !
 ! D81   D(11,12,13,8)          -0.4658         estimate D2E/DX2                !
 ! D82   D(11,12,13,25)        179.4892         estimate D2E/DX2                !
 ! D83   D(82,12,13,8)         179.4766         estimate D2E/DX2                !
 ! D84   D(82,12,13,25)         -0.5684         estimate D2E/DX2                !
 ! D85   D(30,14,15,16)       -167.5993         estimate D2E/DX2                !
 ! D86   D(30,14,15,18)         65.8803         estimate D2E/DX2                !
 ! D87   D(30,14,15,26)        -49.0178         estimate D2E/DX2                !
 ! D88   D(35,14,15,16)         69.4713         estimate D2E/DX2                !
 ! D89   D(35,14,15,18)        -57.0492         estimate D2E/DX2                !
 ! D90   D(35,14,15,26)       -171.9472         estimate D2E/DX2                !
 ! D91   D(43,14,15,16)        -44.609          estimate D2E/DX2                !
 ! D92   D(43,14,15,18)       -171.1295         estimate D2E/DX2                !
 ! D93   D(43,14,15,26)         73.9725         estimate D2E/DX2                !
 ! D94   D(15,14,30,1)         -28.0165         estimate D2E/DX2                !
 ! D95   D(15,14,30,90)         97.8502         estimate D2E/DX2                !
 ! D96   D(15,14,30,91)        132.8819         estimate D2E/DX2                !
 ! D97   D(15,14,30,93)       -146.4474         estimate D2E/DX2                !
 ! D98   D(15,14,30,94)        170.2286         estimate D2E/DX2                !
 ! D99   D(35,14,30,1)          91.4975         estimate D2E/DX2                !
 ! D100  D(35,14,30,90)       -142.6358         estimate D2E/DX2                !
 ! D101  D(35,14,30,91)       -107.6041         estimate D2E/DX2                !
 ! D102  D(35,14,30,93)        -26.9334         estimate D2E/DX2                !
 ! D103  D(35,14,30,94)        -70.2574         estimate D2E/DX2                !
 ! D104  D(43,14,30,1)        -148.3896         estimate D2E/DX2                !
 ! D105  D(43,14,30,90)        -22.5229         estimate D2E/DX2                !
 ! D106  D(43,14,30,91)         12.5088         estimate D2E/DX2                !
 ! D107  D(43,14,30,93)         93.1795         estimate D2E/DX2                !
 ! D108  D(43,14,30,94)         49.8555         estimate D2E/DX2                !
 ! D109  D(15,14,35,34)        -68.6937         estimate D2E/DX2                !
 ! D110  D(15,14,35,36)        108.0507         estimate D2E/DX2                !
 ! D111  D(30,14,35,34)        166.0607         estimate D2E/DX2                !
 ! D112  D(30,14,35,36)        -17.1949         estimate D2E/DX2                !
 ! D113  D(43,14,35,34)         44.1519         estimate D2E/DX2                !
 ! D114  D(43,14,35,36)       -139.1037         estimate D2E/DX2                !
 ! D115  D(15,14,43,42)        139.3933         estimate D2E/DX2                !
 ! D116  D(15,14,43,44)        -48.4555         estimate D2E/DX2                !
 ! D117  D(30,14,43,42)        -95.0347         estimate D2E/DX2                !
 ! D118  D(30,14,43,44)         77.1164         estimate D2E/DX2                !
 ! D119  D(35,14,43,42)         27.1815         estimate D2E/DX2                !
 ! D120  D(35,14,43,44)       -160.6673         estimate D2E/DX2                !
 ! D121  D(14,15,16,27)        176.8275         estimate D2E/DX2                !
 ! D122  D(14,15,16,28)         57.0055         estimate D2E/DX2                !
 ! D123  D(14,15,16,29)        -63.9774         estimate D2E/DX2                !
 ! D124  D(18,15,16,27)        -59.4622         estimate D2E/DX2                !
 ! D125  D(18,15,16,28)       -179.2841         estimate D2E/DX2                !
 ! D126  D(18,15,16,29)         59.733          estimate D2E/DX2                !
 ! D127  D(26,15,16,27)         61.519          estimate D2E/DX2                !
 ! D128  D(26,15,16,28)        -58.3029         estimate D2E/DX2                !
 ! D129  D(26,15,16,29)       -179.2858         estimate D2E/DX2                !
 ! D130  D(14,15,18,17)        -59.8694         estimate D2E/DX2                !
 ! D131  D(14,15,18,19)        119.5527         estimate D2E/DX2                !
 ! D132  D(14,15,18,48)       -150.1208         estimate D2E/DX2                !
 ! D133  D(16,15,18,17)        172.8833         estimate D2E/DX2                !
 ! D134  D(16,15,18,19)         -7.6947         estimate D2E/DX2                !
 ! D135  D(16,15,18,48)         82.6319         estimate D2E/DX2                !
 ! D136  D(26,15,18,17)         51.5871         estimate D2E/DX2                !
 ! D137  D(26,15,18,19)       -128.9909         estimate D2E/DX2                !
 ! D138  D(26,15,18,48)        -38.6643         estimate D2E/DX2                !
 ! D139  D(1,17,18,15)          10.6314         estimate D2E/DX2                !
 ! D140  D(1,17,18,19)        -168.88           estimate D2E/DX2                !
 ! D141  D(21,17,18,15)       -178.6457         estimate D2E/DX2                !
 ! D142  D(21,17,18,19)          1.843          estimate D2E/DX2                !
 ! D143  D(1,17,21,20)         168.8607         estimate D2E/DX2                !
 ! D144  D(1,17,21,31)         -10.5758         estimate D2E/DX2                !
 ! D145  D(18,17,21,20)         -1.6156         estimate D2E/DX2                !
 ! D146  D(18,17,21,31)        178.9479         estimate D2E/DX2                !
 ! D147  D(1,17,48,19)        -156.8592         estimate D2E/DX2                !
 ! D148  D(1,17,48,20)         159.3629         estimate D2E/DX2                !
 ! D149  D(1,17,48,50)          74.2579         estimate D2E/DX2                !
 ! D150  D(1,17,48,51)          34.7908         estimate D2E/DX2                !
 ! D151  D(1,17,48,52)          -9.6891         estimate D2E/DX2                !
 ! D152  D(1,17,48,53)         -51.5671         estimate D2E/DX2                !
 ! D153  D(15,18,19,20)        179.0954         estimate D2E/DX2                !
 ! D154  D(15,18,19,79)          1.942          estimate D2E/DX2                !
 ! D155  D(17,18,19,20)         -1.3897         estimate D2E/DX2                !
 ! D156  D(17,18,19,79)       -178.5431         estimate D2E/DX2                !
 ! D157  D(15,18,48,20)       -157.6266         estimate D2E/DX2                !
 ! D158  D(15,18,48,21)        158.7835         estimate D2E/DX2                !
 ! D159  D(15,18,48,49)        -53.7803         estimate D2E/DX2                !
 ! D160  D(15,18,48,51)         64.9057         estimate D2E/DX2                !
 ! D161  D(15,18,48,52)         30.0391         estimate D2E/DX2                !
 ! D162  D(15,18,48,53)        -12.9319         estimate D2E/DX2                !
 ! D163  D(18,19,20,21)          0.3991         estimate D2E/DX2                !
 ! D164  D(18,19,20,78)       -177.3058         estimate D2E/DX2                !
 ! D165  D(79,19,20,21)        177.5693         estimate D2E/DX2                !
 ! D166  D(79,19,20,78)         -0.1356         estimate D2E/DX2                !
 ! D167  D(79,19,48,17)        158.6506         estimate D2E/DX2                !
 ! D168  D(79,19,48,21)       -156.9726         estimate D2E/DX2                !
 ! D169  D(79,19,48,49)        -11.5088         estimate D2E/DX2                !
 ! D170  D(79,19,48,50)        -50.4219         estimate D2E/DX2                !
 ! D171  D(79,19,48,52)         61.8886         estimate D2E/DX2                !
 ! D172  D(79,19,48,53)         30.8254         estimate D2E/DX2                !
 ! D173  D(19,20,21,17)          0.7626         estimate D2E/DX2                !
 ! D174  D(19,20,21,31)       -179.8064         estimate D2E/DX2                !
 ! D175  D(78,20,21,17)        178.4652         estimate D2E/DX2                !
 ! D176  D(78,20,21,31)         -2.1038         estimate D2E/DX2                !
 ! D177  D(78,20,48,17)       -158.1041         estimate D2E/DX2                !
 ! D178  D(78,20,48,18)        157.2569         estimate D2E/DX2                !
 ! D179  D(78,20,48,49)         33.6108         estimate D2E/DX2                !
 ! D180  D(78,20,48,50)         -9.1269         estimate D2E/DX2                !
 ! D181  D(78,20,48,51)        -47.1951         estimate D2E/DX2                !
 ! D182  D(78,20,48,53)         65.7951         estimate D2E/DX2                !
 ! D183  D(31,21,48,18)       -157.6761         estimate D2E/DX2                !
 ! D184  D(31,21,48,19)        158.3723         estimate D2E/DX2                !
 ! D185  D(31,21,48,49)         72.9124         estimate D2E/DX2                !
 ! D186  D(31,21,48,50)         36.2092         estimate D2E/DX2                !
 ! D187  D(31,21,48,51)         -7.6305         estimate D2E/DX2                !
 ! D188  D(31,21,48,52)        -47.4319         estimate D2E/DX2                !
 ! D189  D(1,30,90,86)         160.6148         estimate D2E/DX2                !
 ! D190  D(1,30,90,96)          29.1392         estimate D2E/DX2                !
 ! D191  D(14,30,90,86)         35.5378         estimate D2E/DX2                !
 ! D192  D(14,30,90,96)        -95.9377         estimate D2E/DX2                !
 ! D193  D(91,30,90,86)         -2.7718         estimate D2E/DX2                !
 ! D194  D(91,30,90,96)       -134.2474         estimate D2E/DX2                !
 ! D195  D(94,30,90,86)        -39.7144         estimate D2E/DX2                !
 ! D196  D(94,30,90,96)       -171.19           estimate D2E/DX2                !
 ! D197  D(1,30,91,86)         -46.0343         estimate D2E/DX2                !
 ! D198  D(1,30,91,97)          85.5686         estimate D2E/DX2                !
 ! D199  D(14,30,91,86)       -165.5965         estimate D2E/DX2                !
 ! D200  D(14,30,91,97)        -33.9936         estimate D2E/DX2                !
 ! D201  D(90,30,91,86)          2.7759         estimate D2E/DX2                !
 ! D202  D(90,30,91,97)        134.3788         estimate D2E/DX2                !
 ! D203  D(93,30,91,86)         39.4594         estimate D2E/DX2                !
 ! D204  D(93,30,91,97)        171.0622         estimate D2E/DX2                !
 ! D205  D(1,30,93,87)        -162.6522         estimate D2E/DX2                !
 ! D206  D(1,30,93,98)         -31.6884         estimate D2E/DX2                !
 ! D207  D(14,30,93,87)        -45.5186         estimate D2E/DX2                !
 ! D208  D(14,30,93,98)         85.4452         estimate D2E/DX2                !
 ! D209  D(91,30,93,87)         39.6541         estimate D2E/DX2                !
 ! D210  D(91,30,93,98)        170.6179         estimate D2E/DX2                !
 ! D211  D(94,30,93,87)          2.6857         estimate D2E/DX2                !
 ! D212  D(94,30,93,98)        133.6495         estimate D2E/DX2                !
 ! D213  D(1,30,94,87)          43.4686         estimate D2E/DX2                !
 ! D214  D(1,30,94,99)         -88.2624         estimate D2E/DX2                !
 ! D215  D(14,30,94,87)        158.9385         estimate D2E/DX2                !
 ! D216  D(14,30,94,99)         27.2075         estimate D2E/DX2                !
 ! D217  D(90,30,94,87)        -39.2881         estimate D2E/DX2                !
 ! D218  D(90,30,94,99)       -171.0192         estimate D2E/DX2                !
 ! D219  D(93,30,94,87)         -2.6884         estimate D2E/DX2                !
 ! D220  D(93,30,94,99)       -134.4194         estimate D2E/DX2                !
 ! D221  D(37,32,33,34)          0.733          estimate D2E/DX2                !
 ! D222  D(37,32,33,62)       -179.1449         estimate D2E/DX2                !
 ! D223  D(60,32,33,34)       -179.9087         estimate D2E/DX2                !
 ! D224  D(60,32,33,62)          0.2134         estimate D2E/DX2                !
 ! D225  D(33,32,37,36)         -0.072          estimate D2E/DX2                !
 ! D226  D(33,32,37,66)       -178.8086         estimate D2E/DX2                !
 ! D227  D(60,32,37,36)       -179.4293         estimate D2E/DX2                !
 ! D228  D(60,32,37,66)          1.834          estimate D2E/DX2                !
 ! D229  D(32,33,34,35)         -0.3263         estimate D2E/DX2                !
 ! D230  D(32,33,34,38)       -179.0247         estimate D2E/DX2                !
 ! D231  D(62,33,34,35)        179.5508         estimate D2E/DX2                !
 ! D232  D(62,33,34,38)          0.8524         estimate D2E/DX2                !
 ! D233  D(32,33,62,63)         59.4122         estimate D2E/DX2                !
 ! D234  D(32,33,62,64)        179.8683         estimate D2E/DX2                !
 ! D235  D(32,33,62,65)        -59.6723         estimate D2E/DX2                !
 ! D236  D(34,33,62,63)       -120.4623         estimate D2E/DX2                !
 ! D237  D(34,33,62,64)         -0.0063         estimate D2E/DX2                !
 ! D238  D(34,33,62,65)        120.4531         estimate D2E/DX2                !
 ! D239  D(33,34,35,14)        175.9454         estimate D2E/DX2                !
 ! D240  D(33,34,35,36)         -0.7235         estimate D2E/DX2                !
 ! D241  D(38,34,35,14)         -5.3705         estimate D2E/DX2                !
 ! D242  D(38,34,35,36)        177.9606         estimate D2E/DX2                !
 ! D243  D(14,35,36,37)       -175.4369         estimate D2E/DX2                !
 ! D244  D(14,35,36,39)          5.1387         estimate D2E/DX2                !
 ! D245  D(34,35,36,37)          1.4132         estimate D2E/DX2                !
 ! D246  D(34,35,36,39)       -178.0111         estimate D2E/DX2                !
 ! D247  D(35,36,37,32)         -1.0108         estimate D2E/DX2                !
 ! D248  D(35,36,37,66)        177.7334         estimate D2E/DX2                !
 ! D249  D(39,36,37,32)        178.4075         estimate D2E/DX2                !
 ! D250  D(39,36,37,66)         -2.8483         estimate D2E/DX2                !
 ! D251  D(32,37,66,67)        -35.3392         estimate D2E/DX2                !
 ! D252  D(32,37,66,68)         83.9143         estimate D2E/DX2                !
 ! D253  D(32,37,66,69)       -156.5112         estimate D2E/DX2                !
 ! D254  D(36,37,66,67)        145.9572         estimate D2E/DX2                !
 ! D255  D(36,37,66,68)        -94.7893         estimate D2E/DX2                !
 ! D256  D(36,37,66,69)         24.7851         estimate D2E/DX2                !
 ! D257  D(45,40,41,42)         -0.5553         estimate D2E/DX2                !
 ! D258  D(45,40,41,70)        178.1614         estimate D2E/DX2                !
 ! D259  D(61,40,41,42)        179.5222         estimate D2E/DX2                !
 ! D260  D(61,40,41,70)         -1.7611         estimate D2E/DX2                !
 ! D261  D(41,40,45,44)         -0.0186         estimate D2E/DX2                !
 ! D262  D(41,40,45,74)        179.1948         estimate D2E/DX2                !
 ! D263  D(61,40,45,44)        179.904          estimate D2E/DX2                !
 ! D264  D(61,40,45,74)         -0.8827         estimate D2E/DX2                !
 ! D265  D(40,41,42,43)          0.215          estimate D2E/DX2                !
 ! D266  D(40,41,42,46)       -179.6089         estimate D2E/DX2                !
 ! D267  D(70,41,42,43)       -178.5071         estimate D2E/DX2                !
 ! D268  D(70,41,42,46)          1.669          estimate D2E/DX2                !
 ! D269  D(40,41,70,71)        152.6248         estimate D2E/DX2                !
 ! D270  D(40,41,70,72)        -87.8859         estimate D2E/DX2                !
 ! D271  D(40,41,70,73)         31.4621         estimate D2E/DX2                !
 ! D272  D(42,41,70,71)        -28.6864         estimate D2E/DX2                !
 ! D273  D(42,41,70,72)         90.8029         estimate D2E/DX2                !
 ! D274  D(42,41,70,73)       -149.8491         estimate D2E/DX2                !
 ! D275  D(41,42,43,14)        172.7569         estimate D2E/DX2                !
 ! D276  D(41,42,43,44)          0.6856         estimate D2E/DX2                !
 ! D277  D(46,42,43,14)         -7.4206         estimate D2E/DX2                !
 ! D278  D(46,42,43,44)       -179.4919         estimate D2E/DX2                !
 ! D279  D(14,43,44,45)       -173.5641         estimate D2E/DX2                !
 ! D280  D(14,43,44,47)          6.0612         estimate D2E/DX2                !
 ! D281  D(42,43,44,45)         -1.2817         estimate D2E/DX2                !
 ! D282  D(42,43,44,47)        178.3437         estimate D2E/DX2                !
 ! D283  D(43,44,45,40)          0.9443         estimate D2E/DX2                !
 ! D284  D(43,44,45,74)       -178.2636         estimate D2E/DX2                !
 ! D285  D(47,44,45,40)       -178.6861         estimate D2E/DX2                !
 ! D286  D(47,44,45,74)          2.106          estimate D2E/DX2                !
 ! D287  D(40,45,74,75)         48.0442         estimate D2E/DX2                !
 ! D288  D(40,45,74,76)        169.033          estimate D2E/DX2                !
 ! D289  D(40,45,74,77)        -71.0085         estimate D2E/DX2                !
 ! D290  D(44,45,74,75)       -132.7657         estimate D2E/DX2                !
 ! D291  D(44,45,74,76)        -11.777          estimate D2E/DX2                !
 ! D292  D(44,45,74,77)        108.1816         estimate D2E/DX2                !
 ! D293  D(18,48,49,54)        -48.3672         estimate D2E/DX2                !
 ! D294  D(19,48,49,54)         -9.664          estimate D2E/DX2                !
 ! D295  D(20,48,49,54)         32.7519         estimate D2E/DX2                !
 ! D296  D(21,48,49,54)         64.6631         estimate D2E/DX2                !
 ! D297  D(51,48,49,54)        158.0127         estimate D2E/DX2                !
 ! D298  D(52,48,49,54)       -158.1155         estimate D2E/DX2                !
 ! D299  D(17,48,50,80)         62.1863         estimate D2E/DX2                !
 ! D300  D(19,48,50,80)        -52.1665         estimate D2E/DX2                !
 ! D301  D(20,48,50,80)        -12.8356         estimate D2E/DX2                !
 ! D302  D(21,48,50,80)         29.6343         estimate D2E/DX2                !
 ! D303  D(52,48,50,80)        158.1739         estimate D2E/DX2                !
 ! D304  D(53,48,50,80)       -158.0614         estimate D2E/DX2                !
 ! D305  D(17,48,51,55)         30.8946         estimate D2E/DX2                !
 ! D306  D(18,48,51,55)         70.0529         estimate D2E/DX2                !
 ! D307  D(20,48,51,55)        -54.7988         estimate D2E/DX2                !
 ! D308  D(21,48,51,55)        -13.416          estimate D2E/DX2                !
 ! D309  D(49,48,51,55)       -157.8673         estimate D2E/DX2                !
 ! D310  D(53,48,51,55)        158.1663         estimate D2E/DX2                !
 ! D311  D(17,48,52,56)        -10.0615         estimate D2E/DX2                !
 ! D312  D(18,48,52,56)         35.3755         estimate D2E/DX2                !
 ! D313  D(19,48,52,56)         74.4846         estimate D2E/DX2                !
 ! D314  D(21,48,52,56)        -52.5275         estimate D2E/DX2                !
 ! D315  D(49,48,52,56)        158.0658         estimate D2E/DX2                !
 ! D316  D(50,48,52,56)       -157.9371         estimate D2E/DX2                !
 ! D317  D(17,48,53,57)        -47.6387         estimate D2E/DX2                !
 ! D318  D(18,48,53,57)         -7.7123         estimate D2E/DX2                !
 ! D319  D(19,48,53,57)         35.8853         estimate D2E/DX2                !
 ! D320  D(20,48,53,57)         71.6669         estimate D2E/DX2                !
 ! D321  D(50,48,53,57)        158.0507         estimate D2E/DX2                !
 ! D322  D(51,48,53,57)       -157.9993         estimate D2E/DX2                !
 ! D323  D(53,49,50,51)          0.2002         estimate D2E/DX2                !
 ! D324  D(53,49,50,80)        178.5143         estimate D2E/DX2                !
 ! D325  D(54,49,50,51)       -178.4079         estimate D2E/DX2                !
 ! D326  D(54,49,50,80)         -0.0939         estimate D2E/DX2                !
 ! D327  D(50,49,53,52)         -0.139          estimate D2E/DX2                !
 ! D328  D(50,49,53,57)       -179.4592         estimate D2E/DX2                !
 ! D329  D(54,49,53,52)        178.4669         estimate D2E/DX2                !
 ! D330  D(54,49,53,57)         -0.8532         estimate D2E/DX2                !
 ! D331  D(49,50,51,52)         -0.1852         estimate D2E/DX2                !
 ! D332  D(49,50,51,55)        179.3522         estimate D2E/DX2                !
 ! D333  D(80,50,51,52)       -178.4969         estimate D2E/DX2                !
 ! D334  D(80,50,51,55)          1.0405         estimate D2E/DX2                !
 ! D335  D(50,51,52,53)          0.0991         estimate D2E/DX2                !
 ! D336  D(50,51,52,56)        179.2536         estimate D2E/DX2                !
 ! D337  D(55,51,52,53)       -179.437          estimate D2E/DX2                !
 ! D338  D(55,51,52,56)         -0.2825         estimate D2E/DX2                !
[...]
 00002424,0.00000992,0.00000880,-0.00000127,-0.00000101,0.00000617,-0.0
 0000714,0.00002656,0.00000392,0.00003748,0.00006943,-0.00001516,-0.000
 00107,0.00000191,-0.00000160,-0.00000122,-0.00000126,0.00000106,-0.000
 00230,-0.00000460,0.00000204,-0.00000039,-0.00000716,0.00000623,-0.000
 00215,-0.00000326,-0.00000513,-0.00000004,-0.00000033,-0.00000101,0.00
 000179,-0.00000071,-0.00000075,-0.00000349,-0.00000129,0.00000086,-0.0
 0000022,0.00000339,0.00000093,0.00000369,0.00000447,0.00000042,-0.0000
 3475,-0.00001443,-0.00002932,0.00000156,0.00000353,-0.00000161,-0.0000
 0246,-0.00000039,0.00000012,-0.00000010,0.00000769,0.00000594,-0.00000
 060,-0.00000104,0.00000178,0.00000101,0.00000181,-0.00000147,-0.000001
 06,-0.00000019,0.00000176,0.00000952,-0.00002489,0.00001658,0.00000700
 ,0.00001313,-0.00001112,0.00000046,0.00000421,0.00001040,-0.00001520,0
 .00003007,-0.00000320,-0.00000109,0.00000380,-0.00000496,-0.00000062,-
 0.00000091,0.00000170,-0.00000577,0.00000046,0.00000035,-0.00000171,0.
 00000080,0.00000027,-0.00000172,-0.00000235,0.00000084,-0.00000010,-0.
 00000053,-0.00000140,-0.00000051,0.00000246,0.00000092,-0.00000094,-0.
 00000144,-0.00000062,0.00000115,0.00000088,0.00000076,-0.00000241,0.00
 000207,-0.00000440,0.00000071,-0.00000111,0.00000068,-0.00000536,-0.00
 001993,-0.00000668,-0.00005446,-0.00002935,0.00001318,0.00000120,-0.00
 000002,-0.00000310,-0.00000426,0.00000129,0.00000635,0.00091288,-0.000
 17150,0.00067325,0.00306452,0.00266066,-0.00341363,0.00379491,0.006407
 07,0.00303048,0.00038917,-0.00017916,0.00055427,-0.00002031,-0.0000725
 7,0.00009058,-0.00827902,0.00161903,-0.00364569,0.00085021,-0.00009030
 ,0.00102231,-0.00071034,0.00018157,-0.00001770,-0.11089412,-0.12918355
 ,-0.10154615,0.00102402,-0.00099529,0.00082955,-0.00061023,0.00020165,
 0.00009716,0.00056915,-0.00204023,0.00160737,-0.00031339,0.00031620,-0
 .00021258,0.11435854,0.13150758,-0.00048814,0.00017647,0.00027361,-0.0
 0015982,-0.00003325,-0.00009540,-0.00000762,0.00003635,0.00002105,-0.0
 0001684,-0.00000240,-0.00004159,-0.00001942,-0.00000618,0.00000200,-0.
 00001754,-0.00000584,0.00002117,-0.00000200,0.00004031,0.00004455,-0.0
 0105439,0.00075626,-0.00003771,0.00025004,0.00018595,-0.00010850,0.000
 24006,-0.00025527,-0.00022587,-0.00013124,-0.00013039,0.00012893,-0.00
 023829,0.00006873,-0.00005803,-0.00035207,0.00000673,0.00002770,-0.000
 52565,-0.00135356,0.00021984,0.00001869,-0.00001174,-0.00000475,-0.000
 00766,0.00000740,0.00000561,-0.00003813,-0.00009293,-0.00002231,0.0000
 4974,-0.00001966,0.00001798,-0.00000357,0.00000110,-0.00000017,-0.0000
 1216,0.00001272,-0.00003093,0.00001858,0.00002054,-0.00001097,-0.00002
 258,-0.00001112,-0.00004202,-0.00000648,0.00002113,-0.00000019,-0.0000
 1005,0.00003172,-0.00001853,0.00035203,-0.00012261,-0.00015038,0.00000
 981,-0.00001507,0.00000091,0.00000135,0.00000598,-0.00000180,-0.000000
 38,0.00000213,-0.00000102,0.00000096,0.00000361,-0.00000267,0.00363119
 ,0.00682261,0.00185173,-0.00001616,0.00000961,0.00000817,0.00000385,0.
 00000377,-0.00002252,0.00001753,0.00000646,-0.00003617,-0.00003366,-0.
 00012798,-0.00007670,0.00006999,0.00026386,-0.00007087,0.00008624,0.00
 010162,-0.00014906,0.00000622,0.00001368,0.00005955,-0.00000942,-0.000
 00543,0.00000954,-0.00002644,0.00007870,-0.00001139,0.00000158,-0.0000
 0721,-0.00000305,-0.00000038,0.00000650,-0.00001411,-0.00000654,0.0000
 1710,-0.00000978,-0.00002074,-0.00010327,0.00005997,-0.00001139,0.0000
 0526,-0.00000405,-0.00000614,-0.00000178,-0.00000364,0.00000192,-0.000
 00243,0.00000753,0.00000583,-0.00000932,-0.00000680,-0.00003115,-0.000
 01289,-0.00003753,0.00000126,0.00000225,0.00000009,0.00000135,0.000000
 59,0.00000056,0.00000342,0.00000658,0.00000308,-0.00000176,-0.00000191
 ,0.00000725,-0.00000247,-0.00000173,-0.00000148,0.00000061,0.,-0.00000
 036,0.00000405,-0.00000058,0.00000313,0.00000045,-0.00000407,-0.000000
 93,0.00000053,-0.00000196,-0.00000007,-0.00000283,-0.00000246,-0.00000
 027,0.00001975,-0.00000016,-0.00000464,-0.00000031,-0.00000069,0.00000
 099,0.00000200,0.00000026,0.00000034,0.00000061,-0.00000937,-0.0000077
 4,0.00000104,0.00000130,-0.00000125,-0.00000189,-0.00000307,0.00000131
 ,0.00000048,0.00000074,-0.00000065,-0.00001200,0.00004792,-0.00004961,
 -0.00000613,-0.00002009,0.00001538,-0.00000088,-0.00001318,-0.00000372
 ,0.00000769,-0.00002880,-0.00001451,0.00000188,-0.00000169,0.00000404,
 -0.00000003,-0.00000005,-0.00000020,0.00000067,-0.00000106,-0.00000078
 ,0.00000104,0.00000056,-0.00000047,0.00000078,0.00000102,0.00000058,0.
 00000151,0.00000167,0.00000147,-0.00000063,0.00000018,-0.00000122,-0.0
 0000025,0.00000068,0.00000143,-0.00000117,0.00000575,-0.00000214,-0.00
 000203,0.00000245,0.00000085,-0.00000033,0.00000083,-0.00000079,-0.000
 01905,0.00000684,-0.00001885,0.00011671,0.00003701,0.00000312,-0.00000
 228,-0.00000227,0.00000709,-0.00000177,0.00000426,0.00000183,0.0013778
 4,-0.00022133,-0.00073733,-0.00016455,-0.00544330,-0.00150552,0.004588
 41,0.00262829,0.00502490,-0.00024018,0.00015142,0.00009788,-0.00008181
 ,0.00013251,-0.00000576,-0.01865429,-0.01107943,-0.00522153,-0.0003533
 7,0.00083064,-0.00147355,-0.00080623,-0.00046165,0.00002761,-0.0967721
 8,-0.09807889,-0.12384108,0.00041186,0.00035507,-0.00051059,-0.0006748
 1,0.00000090,0.00009351,-0.00010725,0.00281197,-0.00017149,0.00019068,
 -0.00028707,0.00033006,0.10957095,0.10209091,0.12638354,0.00169960,-0.
 00014675,-0.00014611,0.00011239,0.00002254,0.00002728,0.00004450,0.000
 01568,0.00001849,-0.00002782,-0.00001211,-0.00001526,-0.00001268,0.000
 00113,0.00000732,-0.00000322,0.00000799,0.00000698,0.00001729,-0.00000
 363,-0.00001963,-0.00007714,0.00006612,0.00007217,0.00001266,-0.000075
 74,0.00001313,0.00002971,0.00004328,-0.00001166,-0.00002724,-0.0000241
 7,0.00005002,-0.00000921,-0.00005141,-0.00004478,0.00005104,0.00001372
 ,-0.00003733,-0.00105675,0.00120250,0.00031534,-0.00010112,0.00006607,
 -0.00009130,0.00003862,-0.00003173,0.00002060,-0.00021242,-0.00001994,
 -0.00004728,-0.00003901,-0.00009392,0.00003641,-0.00000281,0.00002500,
 -0.00003258,-0.00002414,0.00000505,-0.00002782,0.00004195,0.00003920,0
 .00001901,0.00000611,-0.00005509,-0.00004873,-0.00000339,-0.00000145,-
 0.00000258,-0.00002303,0.00001856,-0.00000601,-0.00000295,0.00000807,-
 0.00000494,0.00004982,-0.00004402,-0.00001007,0.00000283,-0.00001508,0
 .00000067,0.00000406,0.00000145,0.00000625,-0.00000994,0.00001192,-0.0
 0001075,-0.01165382,0.00039293,0.00511840,0.00000052,-0.00000029,0.000
 00421,-0.00007823,-0.00009657,0.00002327,0.00002902,0.00012695,0.00003
 692,0.00008880,0.00001566,-0.00019355,0.00028454,0.00032357,0.00005220
 ,0.00017896,-0.00009697,-0.00006976,0.00005886,-0.00015092,-0.00022408
 ,-0.00001577,-0.00003125,0.00002053,-0.00034575,-0.00008763,-0.0000103
 5,0.00010563,-0.00008980,-0.00014165,0.00018826,0.00000989,0.00011671,
 -0.00017572,-0.00016996,-0.00001330,0.00022389,0.00012671,-0.00030476,
 -0.00001909,0.00010967,0.00014488,-0.00020484,-0.00007847,-0.00003651,
 0.00014275,-0.00015663,0.00006451,-0.00000009,-0.00001485,0.00000906,0
 .00002720,0.00006283,-0.00007265,-0.00000182,0.00000268,0.00000370,0.0
 0000128,0.00000016,0.00000116,0.00000576,0.00000344,0.00000333,0.00000
 216,-0.00001405,0.00001303,-0.00000867,-0.00000768,-0.00000841,-0.0000
 0075,0.00000049,-0.00000098,0.00000315,0.00000021,0.00000195,-0.000002
 44,-0.00000250,0.00000182,-0.00000075,0.00000216,0.00000262,-0.0000045
 8,-0.00000149,0.00000046,-0.00000197,-0.00000025,0.00000004,-0.0000069
 0,-0.00000662,0.00001717,0.00000132,-0.00000562,-0.00000770,-0.0000076
 0,0.00001192,0.00001740,-0.00001100,-0.00001494,0.00001321,-0.00000368
 ,-0.00001572,0.00000009,-0.00000832,-0.00001544,0.00000891,0.00002366,
 0.00000441,-0.00000691,-0.00000219,0.00000952,0.00001062,0.00000884,0.
 00000993,0.00002574,-0.00002392,-0.00001815,-0.00000957,0.00002366,0.0
 0002656,0.00000859,-0.00000546,-0.00002686,0.00002665,-0.00006304,-0.0
 0001159,-0.00003777,-0.00001825,0.00002276,0.00000664,-0.00001556,0.00
 000253,-0.00001186,0.00000449,-0.00000573,-0.00000698,0.00000118,-0.00
 000126,-0.00000157,0.00000610,-0.00000195,-0.00000171,-0.00000022,0.00
 000732,-0.00000338,-0.00000968,0.00001004,-0.00000384,-0.00000041,0.00
 000021,0.00000022,-0.00001000,-0.00001030,-0.00000836,0.00000617,-0.00
 000538,-0.00000174,-0.00000044,-0.00000203,0.00000121,0.00000025,0.000
 00065,0.00000146,-0.00057547,-0.00035931,-0.00081166,0.00472102,0.0006
 0130,0.00021273,0.00085430,0.00040950,0.00213170,-0.00007315,0.0000539
 2,0.00000442,-0.00011269,0.00034514,-0.00026574,-0.00008871,0.00044621
 ,-0.00132887,0.00591024,-0.00150389,-0.00231609,0.00015526,-0.00027592
 ,-0.00003612,-0.00076598,-0.00010990,-0.00043318,-0.13347966,-0.052218
 67,0.14988125,0.00019323,-0.00007879,-0.00018154,0.00025414,-0.0001655
 2,0.00021537,-0.00256790,0.00118423,-0.00064192,-0.00007439,-0.0000879
 3,0.00011532,0.13645658,-0.00116198,0.00007100,-0.00028048,0.00010501,
 -0.00001396,0.00006265,-0.00000683,-0.00003043,-0.00003283,0.00004289,
 0.00001276,0.00002081,0.00001503,-0.00000420,-0.00001537,0.00002137,0.
 00000497,-0.00000694,0.00000347,-0.00002622,-0.00004867,0.00006832,-0.
 00005778,-0.00000133,0.00001187,0.00003737,-0.00001070,-0.00000777,-0.
 00001166,0.00000175,0.00001200,0.00001815,-0.00000637,-0.00001747,0.00
 003868,0.00000656,-0.00002087,0.00000564,0.00002188,0.00142766,-0.0008
 6917,-0.00007247,-0.00000538,-0.00016580,-0.00001574,0.00000727,0.0000
 1425,0.00001063,0.00015520,0.00001368,0.00003025,0.00002239,0.00010816
 ,-0.00002022,0.00000772,-0.00002326,0.00002985,0.00000852,-0.00000958,
 0.00001442,-0.00005598,-0.00003738,-0.00002188,-0.00000282,0.00006027,
 0.00005894,0.00000160,-0.00000171,0.00000452,0.00000178,0.00000157,-0.
 00000562,0.00001898,-0.00001275,-0.00000283,-0.00001932,0.00003611,0.0
 0001119,-0.00000930,0.00000334,-0.00000220,0.00000049,-0.00002290,-0.0
 0000512,0.00000533,-0.00000415,0.00000526,0.00522899,0.00136802,-0.000
 97735,-0.00000348,0.00000080,-0.00000392,0.00003461,0.00002374,-0.0000
 4566,-0.00000398,-0.00007363,-0.00004307,-0.00012973,-0.00009103,0.000
 08485,-0.00016715,0.00017268,-0.00014293,0.00011864,0.00009221,-0.0000
 6871,0.00004686,0.00000043,0.00003828,-0.00000782,-0.00001298,0.000016
 82,-0.00012394,-0.00000517,-0.00000584,-0.00011960,0.00007282,0.000166
 30,-0.00040995,-0.00003042,-0.00024469,-0.00006012,-0.00000441,-0.0002
 4249,0.00029772,0.00010795,0.00008609,-0.00005586,-0.00014506,-0.00012
 431,0.00017414,-0.00002370,0.00003848,-0.00022773,-0.00034589,0.000513
 92,-0.00003225,0.00005094,0.00003434,-0.00004036,-0.00007432,0.0000406
 7,0.00000002,-0.00000652,0.00000133,-0.00000012,0.00000144,0.00000073,
 -0.00000419,-0.00000447,-0.00000554,0.00000170,0.00001744,-0.00001633,
 0.00001085,0.00000860,0.00001203,0.00000095,0.00000022,0.00000185,-0.0
 0000495,0.00000034,-0.00000244,0.00000318,0.00000603,-0.00000149,0.000
 00063,-0.00000261,-0.00000162,0.00000659,0.00000146,-0.00000159,0.0000
 0183,0.,0.00000148,-0.00000917,0.00000055,-0.00000976,0.00000223,0.000
 01276,0.00003714,0.00000085,-0.00000199,0.00000004,0.00000259,0.000003
 77,-0.00000075,0.00000119,-0.00000591,0.00000260,-0.00000129,-0.000000
 91,-0.00000296,0.00001529,0.00001633,-0.00002704,-0.00000745,-0.000010
 27,-0.00001554,0.00000235,-0.00002121,0.00000725,-0.00003307,-0.000028
 82,0.00000476,0.00000830,0.00002305,0.00001521,-0.00000865,-0.00000273
 ,-0.00000086,-0.00000356,-0.00000220,-0.00000565,0.00002293,0.00000844
 ,-0.00000086,0.00002790,0.00002584,0.00000016,-0.00000587,0.00000841,0
 .00001757,-0.00001386,0.00000445,0.00000979,-0.00001168,0.00001286,0.0
 0002092,-0.00000314,-0.00000644,0.00000271,0.00000707,-0.00000473,0.00
 000804,-0.00000012,-0.00000032,-0.00000007,-0.00000242,0.00000459,-0.0
 0000058,0.00000462,0.00000744,0.00000071,0.00000522,-0.00000038,-0.000
 00651,0.00000094,-0.00000359,-0.00000546,-0.00136270,-0.00249884,0.000
 39978,-0.00100279,-0.00308120,-0.00250058,-0.01250842,0.00135804,0.017
 09952,0.00015906,0.00010560,0.00019499,0.00028493,0.00003260,0.0010240
 6,0.00007622,-0.00054340,-0.00007990,0.00822327,0.01010463,-0.01214874
 ,0.00024271,0.00082755,-0.00040635,0.00075440,-0.00308357,0.00133141,-
 0.05093356,-0.07286339,0.05884987,0.00050596,0.00129097,-0.00061616,-0
 .00012013,0.00041501,-0.00010258,0.00034255,-0.00002054,0.00117096,-0.
 00047142,0.00022136,0.00016623,0.05064404,0.06745632,0.00109431,-0.000
 20645,-0.00037726,0.00011700,0.00002582,0.00004462,0.00001340,0.000007
 13,0.00003643,-0.00002239,-0.00001079,-0.00000749,-0.00001000,-0.00000
 002,0.00000739,0.00000249,0.00000703,0.00000749,0.00001318,-0.00000659
 ,-0.00002576,-0.00011533,0.00004307,0.00004514,0.00000337,-0.00005501,
 0.00000876,0.00002426,0.00003498,-0.00000231,-0.00002126,-0.00002195,0
 .00003860,0.00000066,-0.00004609,-0.00003245,0.00002935,0.00000588,-0.
 00003797,-0.00016782,0.00108915,0.00065922,0.00004212,0.00002307,-0.00
 016784,-0.00003970,0.00001716,0.00002421,-0.00016752,0.00001554,-0.000
 02949,-0.00002688,-0.00003819,0.00003829,-0.00000172,0.00001079,-0.000
 00950,-0.00001999,0.00000071,-0.00002213,0.00001298,0.00002625,0.00001
 318,-0.00000422,-0.00002024,-0.00003731,-0.00000151,0.00000063,-0.0000
 0182,-0.00001882,0.00001369,-0.00000070,-0.00000796,0.00000770,-0.0000
 0346,0.00003855,-0.00003121,-0.00000313,0.00000265,0.00000833,-0.00001
 184,0.00000210,-0.00001426,0.00000392,-0.00000635,0.00000778,-0.000007
 84,-0.00522597,-0.00068997,0.00325984,-0.00000249,0.00000023,0.0000022
 0,-0.00001620,-0.00003439,-0.00001177,-0.00000283,0.00004815,-0.000021
 05,0.00013734,-0.00001415,-0.00000436,0.00014787,0.00004916,0.00011595
 ,0.00004097,-0.00014335,-0.00000874,0.00003768,-0.00009174,-0.00011632
 ,-0.00000155,-0.00002943,0.00002622,-0.00017679,-0.00003774,-0.0000467
 6,0.00002420,-0.00008823,-0.00012942,0.00001537,0.00000317,-0.00000839
 ,-0.00001751,0.00027698,0.00002571,0.00012817,-0.00022544,-0.00039576,
 0.00009111,0.00018283,0.00016023,-0.00017949,-0.00007426,-0.00005628,0
 .00012228,0.00029274,0.00003174,-0.00001098,-0.00000381,0.00001213,-0.
 00001445,0.00002436,-0.00007151,-0.00000251,0.00000004,0.00000590,0.00
 000038,0.00000186,0.00000086,0.00000256,-0.00000050,0.00000268,0.00000
 431,-0.00000688,0.00000724,0.00000012,0.00000061,-0.00000056,0.0000009
 0,-0.00000021,-0.00000006,0.00000058,-0.00000016,0.00000045,-0.0000001
 8,0.00000122,-0.00000004,0.00000026,-0.00000071,0.00000053,-0.00000364
 ,-0.00000021,-0.00000024,-0.00000345,-0.00000040,-0.00000016,-0.000003
 11,-0.00000199,0.00000450,0.00000819,0.00000173,-0.00000801,-0.0000116
 0,0.00001596,0.00000758,-0.00000636,-0.00000609,0.00000371,-0.00000261
 ,-0.00001155,-0.00000074,-0.00000311,-0.00000818,0.00000546,0.00001920
 ,-0.00000156,-0.00000276,-0.00000584,0.00000349,-0.00000730,0.00000971
 ,0.00000210,0.00001701,-0.00002611,-0.00001108,-0.00000384,-0.00000978
 ,-0.00001311,0.00005209,0.00000613,0.00000490,-0.00001404,-0.00005531,
 -0.00002814,-0.00000340,-0.00000099,0.00001521,-0.00001563,0.00000958,
 0.00002298,-0.00001130,0.00000070,-0.00000001,0.00000817,-0.00000911,0
 .00000334,0.00000497,-0.00000371,0.00000929,0.00001553,-0.00000158,0.0
 0000365,-0.00000275,-0.00000592,0.00000823,0.00000200,0.00000014,-0.00
 000060,-0.00000021,-0.00000800,-0.00000703,-0.00000656,0.00000245,-0.0
 0000547,-0.00000184,0.00000025,-0.00000079,-0.00000066,-0.00000196,0.0
 0000566,0.00000095,0.00015344,-0.00072240,-0.00027126,0.00333772,-0.00
 212521,-0.00234378,-0.00021630,-0.00261884,0.00197243,-0.00012975,0.00
 008519,-0.00005053,-0.00008423,0.00018158,-0.00018181,-0.00095153,0.00
 021571,-0.00084535,0.01263335,0.01034355,-0.01056684,0.00064655,0.0005
 2265,-0.00026073,-0.00096538,0.00036277,-0.00036590,0.14275785,0.05567
 761,-0.22577478,0.00007470,0.00040317,0.00007934,0.00025517,-0.0001947
 0,0.00025223,-0.00205341,0.00086711,0.00021721,-0.00005862,-0.00006027
 ,0.00010516,-0.15116182,-0.06327250,0.23506250\\0.00000241,0.00000319,
 -0.00000026,-0.00000144,0.00000015,-0.00000043,-0.00000058,0.00000219,
 0.00000103,0.00000011,0.00000113,-0.00000118,-0.00000029,0.00000161,-0
 .00000146,-0.00000101,0.00000254,0.00000103,0.00000078,0.00000162,-0.0
 0000076,-0.00000064,-0.00000032,0.00000036,-0.00000154,-0.00000060,0.0
 0000078,-0.00000117,0.00000029,0.00000132,-0.00000104,0.00000117,0.000
 00059,-0.00000092,0.00000149,0.00000020,-0.00000086,0.00000119,-0.0000
 0034,0.00000057,-0.00000061,-0.00000005,-0.00000048,-0.00000018,-0.000
 00166,0.00000169,-0.00000025,-0.00000065,-0.00000816,-0.00000449,0.000
 00039,0.00000040,-0.00000161,-0.00000041,0.00000049,-0.00000210,-0.000
 00022,0.00000172,-0.00000089,-0.00000046,0.00000025,0.00000047,0.00000
 204,-0.00000024,0.00000132,-0.00000009,-0.00000056,0.00000129,-0.00000
 023,-0.00000029,0.00000063,-0.00000006,-0.00000109,0.00000115,0.000000
 69,0.00000056,0.00000026,-0.00000038,0.00000079,0.00000013,-0.00000089
 ,0.00000124,-0.00000041,-0.00000034,0.00000127,-0.00000089,-0.00000079
 ,-0.00000051,0.00000154,-0.00000039,-0.00000032,0.00000048,-0.00000170
 ,-0.00000069,-0.00000394,0.00000106,0.00000152,0.00000074,0.00000225,0
 .00000123,-0.00000172,-0.00000262,0.00000032,0.00000018,0.00000154,-0.
 00000015,-0.00000067,0.00000217,0.00000046,-0.00000055,-0.00000299,0.0
 0000045,-0.00000115,-0.00000045,-0.00000031,-0.00000097,0.00000051,-0.
 00000202,0.00000049,0.00000204,0.00000032,-0.00000264,-0.00000146,0.00
 000236,-0.00000062,0.00000007,-0.00000080,0.00000053,0.00000097,-0.000
 00251,-0.00000365,-0.00000388,0.00000609,0.00000077,-0.00000043,0.0000
 0035,-0.00000126,0.00000055,0.00000059,0.00000170,0.00000209,0.0000090
 2,0.00001273,-0.00000494,-0.00000026,0.00000058,0.00000163,-0.00000091
 ,-0.00000166,-0.00000091,-0.00000127,0.00000005,-0.00000187,0.00000176
 ,0.00000016,-0.00000028,-0.00000056,0.00000062,0.00000008,0.00000133,0
 .00000050,-0.00000144,0.00000140,0.00000132,-0.00000030,-0.00000024,0.
 00000130,-0.00000078,0.00000098,0.00000069,-0.00000184,-0.00000041,0.0
 0000229,-0.00000042,-0.00000156,0.00000050,0.00000095,0.00000053,-0.00
 000131,0.00000040,0.00000043,-0.00000120,-0.00000032,0.00000023,-0.000
 00222,-0.00000039,0.00000089,-0.00000226,-0.00000006,0.00000133,-0.000
 00172,-0.00000015,0.00000130,-0.00000176,0.00000020,-0.00000126,-0.000
 00105,0.00000198,-0.00000065,-0.00000174,0.00000048,0.00000025,-0.0000
 0083,0.00000008,0.00000001,-0.00000071,0.00000126,0.00000004,-0.000001
 29,-0.00000002,0.00000037,-0.00000165,0.00000040,0.00000033,-0.0000019
 1,0.00000068,0.00000055,-0.00000180,0.00000020,-0.00000009,-0.00000023
 ,-0.00000117,0.00000013,-0.00000013,-0.00000022,0.00000059,0.00000014,
 -0.00000034,0.00000095,-0.00000039,-0.00000040,0.00000037,0.00000028,-
 0.00000035,0.00000125,-0.00000008,-0.00000102,0.00000120,0.00000196,-0
 .00000136,-0.00000081,-0.00000006,0.00000062,-0.00000186,0.00000060,0.
 00000137,-0.00000026,0.00000214,-0.00000059,-0.00000034,0.00000181,-0.
 00000022,-0.00000155,-0.00000025,0.00000177,-0.00000012,0.00000100,0.0
 0000098,-0.00000135,-0.00000045,0.00000037,-0.00000060,-0.00000020,0.0
 0000118,-0.00000151,-0.00000003,0.00000115,-0.00000223,-0.00000135,-0.
 00000089,-0.00000031,-0.00000083,-0.00000015,-0.00000087,0.00000044,0.
 00000090,0.00000032,0.00000072,0.00000180,-0.00000169,0.00000018,0.000
 00111,-0.00000110,-0.00000080,0.00000079,-0.00000020,0.00000079,0.0000
 0087,-0.00000022,-0.00000030,0.00000149,-0.00000162,-0.00000025,0.0000
 0056,-0.00000006,-0.00000106,0.00000005\\\@
 The archive entry for this job was punched.


 IT IS WELL TO REMEMBER THAT MAN IS A PART OF NATURE AND THAT HIS WORKS,
 WHATEVER THEY MAY BE, ARE NO MORE "UNNATURAL" THAN 
 THE FLIGHT OF AN EAGLE OR THE PASSAGE OF A TORNADO.

                                    -- CHARLES MCCARRY IN "THE GREAT SOUTHWEST"
 Job cpu time:       1 days 10 hours 20 minutes 47.9 seconds.
 Elapsed time:       0 days  1 hours  7 minutes 42.1 seconds.
 File lengths (MBytes):  RWF=   8736 Int=      0 D2E=      0 Chk=     68 Scr=     32
 Normal termination of Gaussian 16 at Tue Sep 26 13:13:52 2023.
