      -----------------------------------------------------------      
     |                   =====================                   |     
     |                           x T B                           |     
     |                   =====================                   |     
     |                         S. Grimme                         |     
     |          Mulliken Center for Theoretical Chemistry        |     
     |                    University of Bonn                     |     
      -----------------------------------------------------------      

   * xtb version 6.6.1 (8d0f1dd) compiled by 'stahn@M-Bot' on 2023-08-01

   xtb is free software: you can redistribute it and/or modify it under
   the terms of the GNU Lesser General Public License as published by
   the Free Software Foundation, either version 3 of the License, or
   (at your option) any later version.
   
   xtb is distributed in the hope that it will be useful,
   but WITHOUT ANY WARRANTY; without even the implied warranty of
   MERCHANTABILITY or FITNESS FOR A PARTICULAR PURPOSE.  See the
   GNU Lesser General Public License for more details.
   
   Cite this work as:
   * C. Bannwarth, E. Caldeweyher, S. Ehlert, A. Hansen, P. Pracht,
     J. Seibert, S. Spicher, S. Grimme, WIREs Comput. Mol. Sci., 2020, 11,
     e01493. DOI: 10.1002/wcms.1493
   
   for GFN2-xTB:
   * C. Bannwarth, S. Ehlert and S. Grimme., J. Chem. Theory Comput., 2019,
     15, 1652-1671. DOI: 10.1021/acs.jctc.8b01176
   for GFN1-xTB:
   * S. Grimme, C. Bannwarth, P. Shushkov, J. Chem. Theory Comput., 2017,
     13, 1989-2009. DOI: 10.1021/acs.jctc.7b00118
   for GFN0-xTB:
   * P. Pracht, E. Caldeweyher, S. Ehlert, S. Grimme, ChemRxiv, 2019, preprint.
     DOI: 10.26434/chemrxiv.8326202.v1
   for GFN-FF:
   * S. Spicher and S. Grimme, Angew. Chem. Int. Ed., 2020, 59, 15665-15673.
     DOI: 10.1002/anie.202004239
   
   for ALPB and GBSA implicit solvation:
   * S. Ehlert, M. Stahn, S. Spicher, S. Grimme, J. Chem. Theory Comput.,
     2021, 17, 4250-4261. DOI: 10.1021/acs.jctc.1c00471
   
   for DFT-D4:
   * E. Caldeweyher, C. Bannwarth and S. Grimme, J. Chem. Phys., 2017,
     147, 034112. DOI: 10.1063/1.4993215
   * E. Caldeweyher, S. Ehlert, A. Hansen, H. Neugebauer, S. Spicher,
     C. Bannwarth and S. Grimme, J. Chem. Phys., 2019, 150, 154122.
     DOI: 10.1063/1.5090222
   * E. Caldeweyher, J.-M. Mewes, S. Ehlert and S. Grimme, Phys. Chem. Chem. Phys.
     2020, 22, 8499-8512. DOI: 10.1039/D0CP00502A
   
   for sTDA-xTB:
   * S. Grimme and C. Bannwarth, J. Chem. Phys., 2016, 145, 054103.
     DOI: 10.1063/1.4959605
   
   in the mass-spec context:
   * V. Asgeirsson, C. Bauer and S. Grimme, Chem. Sci., 2017, 8, 4879.
     DOI: 10.1039/c7sc00601b
   * J. Koopman and S. Grimme, ACS Omega 2019, 4, 12, 15120-15133.
     DOI: 10.1021/acsomega.9b02011
   
   for metadynamics refer to:
   * S. Grimme, J. Chem. Theory Comput., 2019, 155, 2847-2862
     DOI: 10.1021/acs.jctc.9b00143
   
   for SPH calculations refer to:
   * S. Spicher and S. Grimme, J. Chem. Theory Comput., 2021, 17, 1701-1714
     DOI: 10.1021/acs.jctc.0c01306
   
   with help from (in alphabetical order)
   P. Atkinson, C. Bannwarth, F. Bohle, G. Brandenburg, E. Caldeweyher
   M. Checinski, S. Dohm, S. Ehlert, S. Ehrlich, I. Gerasimov, C. Hölzer
   A. Katbashev, J. Koopman, C. Lavigne, S. Lehtola, F. März, M. Müller,
   F. Musil, H. Neugebauer, J. Pisarek, C. Plett, P. Pracht, F. Pultar,
   J. Seibert, P. Shushkov, S. Spicher, M. Stahn, M. Steiner, T. Strunk,
   J. Stückrath, T. Rose, and J. Unsleber
   
 * started run on 2024/02/05 at 14:11:34.347     

           -------------------------------------------------
          |                Calculation Setup                |
           -------------------------------------------------

          program call               : xtb tmpcoord --gff --opt
          hostname                   : cmp129
          coordinate file            : tmpcoord
          omp threads                :                     1

   ID    Z sym.   atoms
    1    6 c      1-5, 12-16, 20, 24-28, 30, 35, 39, 44-46, 48, 51, 54,
                  61-63, 65, 68, 71, 78-80, 82, 85, 88, 95-97, 99, 102, 105,
                  112-114, 117, 118, 120, 121
    2    1 h      6-10, 17-19, 23, 29, 31-33, 36-38, 40-42, 47, 49, 50, 52,
                  53, 55-60, 64, 66, 67, 69, 70, 72-77, 81, 83, 84, 86, 87,
                  89-94, 98, 100, 101, 103, 104, 106-111, 115, 116, 119,
                  122-126
    3   26 fe     11
    4   15 p      21, 34
    5    7 n      22
    6   45 rh     43

molecular fragmentation (1/2 indicates fragments):
111111111111111111111111111111111111111111111111111111111111111111111111
111111111111111111111111111111111111111111111121121111
# atoms in fragment 1/2:   124     2
 fragment masses (1/2) :      904.79        2.02
CMA distance (Bohr)    :   7.690
constraining FC (au)   :  0.0500
          charge from .CHRG file: 1
 
          ==================== Thresholds ====================
          CN  :   150.00000
          rep :   500.00000
          disp:  2500.00000
          HB1 :   250.00000
          HB2 :   450.00000
 
          Pauling EN used:
          Z : 1  EN :  2.20
          Z : 6  EN :  2.55
          Z : 7  EN :  3.04
          Z :15  EN :  2.19
          Z :26  EN :  1.83
          Z :45  EN :  2.28
          electric field strengths (au): 0.000
 
           ------------------------------------------------- 
          |           Force Field Initialization            |
           ------------------------------------------------- 
 
          distances ...
          ----------------------------------------
          generating topology and atomic info file ...
          pair mat ...
          computing topology distances matrix with Floyd-Warshall algo ...
          making topology EEQ charges ...
          #fragments for EEQ constrain: 1
          ----------------------------------------
          generating topology and atomic info file ...
          pair mat ...
          computing topology distances matrix with Floyd-Warshall algo ...
          making topology EEQ charges ...
          #fragments for EEQ constrain: 1
          rings ...
          # BATM   2285
          # H in HB   14
          doing iterative Hueckel for 7 subsystem(s) ...
 
  atom   neighbors  erfCN metchar sp-hybrid imet pi  qest     coordinates
    1  c       3    3.65   0.00         2    0    1  -0.062   -7.194502    4.143030    2.085492
    2  c       5    3.98   0.00         3    0    0  -0.027   -4.904155    5.416196    2.874839
    3  c       3    3.89   0.00         2    0    1  -0.062   -3.327688    5.076399    0.636667
    4  c       3    3.73   0.00         2    0    1  -0.056   -4.868134    4.640193   -1.386998
    5  c       3    3.59   0.00         2    0    1  -0.056   -7.224306    3.990896   -0.507553
    6  h       1    0.98   0.00         0    0    0   0.042   -8.553196    3.504021    3.399989
    7  h       1    0.97   0.00         0    0    0   0.034   -5.148837    7.346326    3.504264
    8  h       1    0.98   0.00         0    0    0   0.042   -1.490022    5.853372    0.686654
    9  h       1    0.98   0.00         0    0    0   0.042   -4.560589    4.753271   -3.342315
   10  h       1    0.98   0.00         0    0    0   0.042   -8.522938    3.228411   -1.790354
   11  fe     15    4.41   0.00         0    2    0   0.245   -4.785029    1.798671    0.978383
   12  c       5    3.96   0.00         3    0    0  -0.034   -3.613757    3.658519    4.634277
   13  c       3    3.89   0.00         2    0    0  -0.039   -1.981979    2.093970    3.027056
   14  c       4    3.59   0.00         3    0    0  -0.018   -2.911254   -0.359750    2.956678
   15  c       3    3.46   0.00         2    0    1  -0.068   -4.948059   -0.413019    4.703383
   16  c       3    3.22   0.00         2    0    1  -0.024   -5.445798    1.847158    5.573328
   17  h       1    0.97   0.00         0    0    0   0.035   -2.684500    4.646377    6.163861
   18  h       1    0.98   0.00         0    0    0   0.042   -5.876393   -2.077426    5.349540
   19  h       1    0.98   0.00         0    0    0   0.044   -6.945636    2.357146    6.815804
   20  c       4    3.72   0.00         3    0    0   0.015    0.692896    2.459482    2.396656
   21  p       5    4.13   0.01         3    0    0  -0.030   -2.660811   -2.021982    0.085387
   22  n       3    2.79   0.00         3    0    0  -0.160    1.500413    5.044535    2.960015
   23  h       2    1.84   0.02         1    0    0  -0.015    0.930865    2.128355    0.314838
   24  c       3    2.88   0.00         2    0    1  -0.018    2.158335    0.410314    3.803273
   25  c       3    2.81   0.00         2    0    1  -0.023    4.388951   -0.688156    2.920485
   26  c       3    2.82   0.00         2    0    1  -0.031    1.158148   -0.369120    6.114331
   27  c       3    2.86   0.00         2    0    1  -0.032    5.506366   -2.591358    4.358655
   28  c       3    2.81   0.00         2    0    1  -0.029    2.343936   -2.187508    7.556385
   29  h       1    0.97   0.00         0    0    0   0.045   -0.615831    0.427195    6.735152
   30  c       3    2.81   0.00         2    0    1  -0.029    4.525017   -3.322847    6.661066
   31  h       1    0.97   0.00         0    0    0   0.045    7.169651   -3.539054    3.663308
   32  h       1    0.97   0.00         0    0    0   0.045    1.551338   -2.746013    9.349306
   33  h       1    0.97   0.00         0    0    0   0.044    5.449872   -4.782603    7.744106
   34  p       3    3.09   0.03         3    0    0   0.038    5.743846    0.383471   -0.125108
   35  c       4    3.51   0.00         3    0    0  -0.022    2.278056    5.445564    5.558597
   36  h       1    0.97   0.00         0    0    0   0.040    4.214129    4.791859    5.915115
   37  h       1    0.97   0.00         0    0    0   0.040    2.187221    7.463902    5.951335
   38  h       1    0.97   0.00         0    0    0   0.040    1.030024    4.455356    6.843545
   39  c       4    3.51   0.00         3    0    0  -0.022    3.363801    6.115288    1.274753
   40  h       1    0.97   0.00         0    0    0   0.040    3.454908    8.143494    1.624425
   41  h       1    0.97   0.00         0    0    0   0.040    5.259148    5.329362    1.570147
   42  h       1    0.97   0.00         0    0    0   0.040    2.817272    5.819275   -0.681445
   43  rh      7    4.39   0.00         0    2    0   0.285   -1.129436    1.394239   -1.983878
   44  c       4    3.49   0.00         3    0    0  -0.031    6.494651   -2.762136   -1.601465
   45  c       4    3.55   0.00         3    0    0  -0.042    4.012846   -4.192973   -1.970542
   46  c       4    3.54   0.00         3    0    0  -0.042    7.761637   -2.348180   -4.165154
   47  h       1    0.97   0.00         0    0    0   0.034    7.751422   -3.879879   -0.400008
   48  c       4    3.49   0.00         3    0    0  -0.037    4.475935   -6.710255   -3.299408
   49  h       1    0.97   0.00         0    0    0   0.038    3.115023   -4.513146   -0.134817
   50  h       1    0.97   0.00         0    0    0   0.038    2.725506   -3.035791   -3.103650
   51  c       4    3.49   0.00         3    0    0  -0.037    8.228196   -4.861970   -5.499400
   52  h       1    0.97   0.00         0    0    0   0.038    9.556629   -1.360566   -3.931904
   53  h       1    0.97   0.00         0    0    0   0.038    6.552793   -1.162700   -5.350142
   54  c       4    3.49   0.00         3    0    0  -0.040    5.754255   -6.296352   -5.849348
   55  h       1    0.97   0.00         0    0    0   0.036    5.684789   -7.892209   -2.114745
   56  h       1    0.97   0.00         0    0    0   0.036    2.695576   -7.718424   -3.574319
   57  h       1    0.97   0.00         0    0    0   0.036    9.525527   -6.004920   -4.371251
   58  h       1    0.97   0.00         0    0    0   0.036    9.117086   -4.525713   -7.330444
   59  h       1    0.97   0.00         0    0    0   0.036    6.114033   -8.111823   -6.757776
   60  h       1    0.97   0.00         0    0    0   0.036    4.497820   -5.217190   -7.083915
   61  c       4    3.49   0.00         3    0    0  -0.031    8.934749    1.583078    0.999600
   62  c       4    3.50   0.00         3    0    0  -0.042   11.041389   -0.312110    1.539511
   63  c       4    3.54   0.00         3    0    0  -0.042    9.868466    3.535461   -0.928118
   64  h       1    0.97   0.01         0    0    0   0.034    8.510380    2.578879    2.774065
   65  c       4    3.49   0.00         3    0    0  -0.037   13.378623    1.068005    2.530025
   66  h       1    0.97   0.00         0    0    0   0.038   10.450601   -1.685566    2.956293
   67  h       1    0.97   0.00         0    0    0   0.038   11.550328   -1.326393   -0.182618
   68  c       4    3.49   0.00         3    0    0  -0.037   12.204836    4.912233    0.049601
   69  h       1    0.97   0.00         0    0    0   0.038    8.380327    4.910942   -1.337635
   70  h       1    0.97   0.00         0    0    0   0.038   10.339086    2.588703   -2.700800
   71  c       4    3.49   0.00         3    0    0  -0.040   14.304051    3.026414    0.630072
   72  h       1    0.97   0.00         0    0    0   0.036   12.916848    2.005215    4.311549
   73  h       1    0.97   0.00         0    0    0   0.036   14.871607   -0.304207    2.910022
   74  h       1    0.97   0.00         0    0    0   0.036   11.720842    5.951735    1.767394
   75  h       1    0.97   0.00         0    0    0   0.036   12.846715    6.279251   -1.355584
   76  h       1    0.97   0.00         0    0    0   0.036   15.950752    4.012826    1.382315
   77  h       1    0.97   0.00         0    0    0   0.036   14.878106    2.078971   -1.112319
   78  c       3    3.98   0.00         3    0    0  -0.051   -5.831932   -1.157960   -1.079707
   79  c       4    3.51   0.00         3    0    0  -0.040   -7.150391   -2.686776   -3.077614
   80  c       5    4.03   0.00         3    0    0  -0.043   -7.469948   -0.791651    1.150756
   81  h       2    1.86   0.02         1    0    0   0.001   -5.646771    0.816389   -1.675903
   82  c       4    3.50   0.00         3    0    0  -0.039   -9.521052   -1.208701   -3.770368
   83  h       1    0.97   0.00         0    0    0   0.038   -5.947320   -2.975851   -4.719781
   84  h       1    0.97   0.00         0    0    0   0.038   -7.684791   -4.533960   -2.339189
   85  c       4    3.49   0.00         3    0    0  -0.043  -10.168710   -0.056377    0.755547
   86  h       2    1.91   0.01         1    0    0  -0.006   -6.944578    0.816072    2.362797
   87  h       1    0.98   0.00         0    0    0   0.033   -7.327640   -2.453336    2.285028
   88  c       4    3.49   0.00         3    0    0  -0.038  -11.362033   -1.290007   -1.560765
   89  h       1    0.97   0.00         0    0    0   0.036   -8.953964    0.746250   -4.135624
   90  h       1    0.97   0.00         0    0    0   0.036  -10.412581   -1.969842   -5.461558
   91  h       1    0.98   0.00         0    0    0   0.037  -10.263286    1.966715    0.630507
   92  h       1    0.97   0.00         0    0    0   0.037  -11.206464   -0.581348    2.459810
   93  h       1    0.97   0.00         0    0    0   0.035  -13.113985   -0.323517   -2.043663
   94  h       1    0.97   0.00         0    0    0   0.035  -11.824256   -3.258132   -1.165245
   95  c       4    3.49   0.00         3    0    0  -0.031   -3.169119   -5.312190    1.215195
   96  c       4    3.53   0.00         3    0    0  -0.040   -2.625474   -7.277853   -0.817612
   97  c       4    3.56   0.00         3    0    0  -0.040   -1.496374   -5.734757    3.520421
   98  h       1    0.97   0.01         0    0    0   0.033   -5.151340   -5.475480    1.784711
   99  c       4    3.49   0.00         3    0    0  -0.040   -2.997187   -9.940988    0.231637
  100  h       1    0.97   0.00         0    0    0   0.036   -0.674445   -7.067268   -1.447660
  101  h       1    0.97   0.00         0    0    0   0.036   -3.857459   -6.983069   -2.446366
  102  c       4    3.49   0.00         3    0    0  -0.040   -1.863431   -8.394035    4.567928
  103  h       1    0.97   0.00         0    0    0   0.036   -1.931175   -4.316324    4.952281
  104  h       1    0.97   0.00         0    0    0   0.036    0.482220   -5.476175    2.990864
  105  c       4    3.49   0.00         3    0    0  -0.039   -1.306481  -10.358810    2.530595
  106  h       1    0.97   0.00         0    0    0   0.036   -2.562526  -11.334964   -1.223616
  107  h       1    0.97   0.00         0    0    0   0.036   -4.971130  -10.196673    0.777253
  108  h       1    0.97   0.00         0    0    0   0.036   -0.621213   -8.684583    6.186592
  109  h       1    0.97   0.00         0    0    0   0.036   -3.809605   -8.617639    5.217241
  110  h       1    0.97   0.00         0    0    0   0.036    0.671274  -10.209056    1.960541
  111  h       1    0.97   0.00         0    0    0   0.036   -1.605390  -12.254122    3.282016
  112  c       4    3.54   0.00         3    0    0  -0.039   -0.327774    2.546888   -8.552870
  113  c       4    3.68   0.00         3    0    0  -0.005   -2.071399    3.689230   -6.541723
  114  c       4    3.67   0.00         3    0    0  -0.005    0.970900    0.755601   -6.687646
  115  h       1    0.97   0.00         0    0    0   0.040    0.959847    3.923591   -9.381299
  116  h       1    0.97   0.00         0    0    0   0.040   -1.351237    1.564247  -10.045774
  117  c       3    3.55   0.00         2    0    1  -0.075   -3.178016    1.338927   -5.292399
  118  c       3    3.53   0.00         2    0    1  -0.075   -0.220873    4.392222   -4.444911
  119  h       1    0.97   0.00         0    0    0   0.036   -3.387491    5.133668   -7.178027
  120  c       3    3.55   0.00         2    0    1  -0.075   -1.272396   -0.507613   -5.417641
  121  c       3    3.55   0.00         2    0    1  -0.075    1.667377    2.546052   -4.557713
  122  h       1    0.97   0.00         0    0    0   0.036    2.449888   -0.466559   -7.411113
  123  h       1    0.97   0.00         0    0    0   0.039   -5.190351    1.047761   -5.204987
  124  h       1    0.97   0.00         0    0    0   0.039   -0.046870    6.302588   -3.749639
  125  h       1    0.97   0.00         0    0    0   0.039   -1.537574   -2.530421   -5.391126
  126  h       1    0.97   0.00         0    0    0   0.039    3.579445    2.714336   -3.875588
 
          #atoms :   126
          #bonds :   152
          #angl  :   277
          #tors  :   475
          #nmol  :   1
          #optfrag :   1
           ------------------------------------------------- 
          |                   G F N - F F                   |
          |          A general generic force-field          |
          |                  Version 1.0.3                  | 
           ------------------------------------------------- 
          Number of HB bonds (bound hydrogen)     2367
          Number of HB bonds (unbound hydrogen)   260
          Number of XB bonds                      101

 E+G (total)                   0 d,  0 h,  0 min,  0.004 sec
 distance/D3 list               ...        0 min,  0.000 sec (  3.341%)
 non bonded repulsion           ...        0 min,  0.000 sec ( 10.185%)
 dCN                            ...        0 min,  0.000 sec ( 11.053%)
 EEQ energy and q               ...        0 min,  0.000 sec ( 12.560%)
 D3                             ...        0 min,  0.001 sec ( 21.982%)
 EEQ gradient                   ...        0 min,  0.000 sec (  4.378%)
 bonds                          ...        0 min,  0.000 sec ( 11.360%)
 bend and torsion               ...        0 min,  0.000 sec (  6.186%)
 bonded ATM                     ...        0 min,  0.000 sec (  3.171%)
 HB/XB (incl list setup)        ...        0 min,  0.001 sec ( 14.968%)

         :::::::::::::::::::::::::::::::::::::::::::::::::::::
         ::                     SUMMARY                     ::
         :::::::::::::::::::::::::::::::::::::::::::::::::::::
         :: total energy             -18.886679044336 Eh    ::
         :: gradient norm              0.293797072632 Eh/a0 ::
         ::.................................................::
         :: bond energy              -21.907309883750 Eh    ::
         :: angle energy               0.198317719970 Eh    ::
         :: torsion energy             0.102495341198 Eh    ::
         :: repulsion energy           1.767793778302 Eh    ::
         :: electrostat energy         1.194351243787 Eh    ::
         :: dispersion energy         -0.202744496014 Eh    ::
         :: HB energy                 -0.001791368465 Eh    ::
         :: XB energy                 -0.002992551300 Eh    ::
         :: bonded atm energy         -0.034798828064 Eh    ::
         :: external energy            0.000000000000 Eh    ::
         :: add. restraining           0.000000000000 Eh    ::
         :: total charge               1.000000000000 e     ::
         :::::::::::::::::::::::::::::::::::::::::::::::::::::

      ----------------------------------------------------------- 
     |                   =====================                   |
     |                        A N C O P T                        |
     |                   =====================                   |
     |               Approximate Normal Coordinate               |
     |                Rational Function Optimizer                |
      ----------------------------------------------------------- 

          ...................................................
          :                      SETUP                      :
          :.................................................:
          :   optimization level            normal          :
          :   max. optcycles                   378          :
          :   ANC micro-cycles                  20          :
          :   degrees of freedom               372          :
          :.................................................:
          :   RF solver                   davidson          :
          :   write xtbopt.log                true          :
          :   linear?                        false          :
          :   energy convergence         0.5000000E-05 Eh   :
          :   grad. convergence          0.1000000E-02 Eh/α :
          :   maxmium RF displ.          1.0000000          :
          :   Hlow (freq-cutoff)         0.1000000E-01      :
          :   Hmax (freq-cutoff)         5.0000000          :
          :   S6 in model hess.         20.0000000          :
          ...................................................

generating ANC from model Hessian ...
Using GFN-FF Lindh-Hessian
 Shifting diagonal of input Hessian by   1.000398543544787E-002
 Lowest  eigenvalues of input Hessian
    0.010000    0.000000    0.000000    0.000000    0.000000    0.000000
    0.000000    0.010016    0.010030    0.010034    0.010051    0.010067
    0.010106    0.010119    0.010211    0.010300    0.010365    0.010421
 Highest eigenvalues
    2.739371    2.765224    2.776946    2.841211    2.866638    2.915536
 

........................................................................
.............................. CYCLE    1 ..............................
........................................................................
     iter. time                 ...        0 min,  0.003 sec
 * total energy  :   -18.8866790 Eh     change        0.0000000E+00 Eh
   gradient norm :     0.2937971 Eh/α   predicted     0.0000000E+00 (    NaN%)
   displ. norm   :     0.6549521 α      lambda       -0.1550469E+00
   maximum displ.:     0.2515143 α      in ANC's #81, #189, #120, ...

........................................................................
.............................. CYCLE    2 ..............................
........................................................................
     iter. time                 ...        0 min,  0.003 sec
 * total energy  :   -19.0107395 Eh     change       -0.1240605E+00 Eh
   gradient norm :     0.1814728 Eh/α   predicted    -0.1108217E+00 ( -10.67%)
   displ. norm   :     0.6601031 α      lambda       -0.1004858E+00
   maximum displ.:     0.2092022 α      in ANC's #81, #189, #74, ...

........................................................................
.............................. CYCLE    3 ..............................
........................................................................
     iter. time                 ...        0 min,  0.002 sec
 * total energy  :   -19.0886573 Eh     change       -0.7791780E-01 Eh
   gradient norm :     0.1016734 Eh/α   predicted    -0.7213559E-01 (  -7.42%)
   displ. norm   :     0.6797434 α      lambda       -0.5531835E-01
   maximum displ.:     0.1835853 α      in ANC's #81, #47, #22, ...

........................................................................
.............................. CYCLE    4 ..............................
........................................................................
     iter. time                 ...        0 min,  0.002 sec
 * total energy  :   -19.1318103 Eh     change       -0.4315298E-01 Eh
   gradient norm :     0.0632555 Eh/α   predicted    -0.4043921E-01 (  -6.29%)
   displ. norm   :     0.7180332 α      lambda       -0.3244615E-01
   maximum displ.:     0.2168544 α      in ANC's #47, #22, #29, ...

........................................................................
.............................. CYCLE    5 ..............................
........................................................................
     iter. time                 ...        0 min,  0.003 sec
 * total energy  :   -19.1581589 Eh     change       -0.2634855E-01 Eh
   gradient norm :     0.0470486 Eh/α   predicted    -0.2458776E-01 (  -6.68%)
   displ. norm   :     0.7419711 α      lambda       -0.2189577E-01
   maximum displ.:     0.2436707 α      in ANC's #22, #29, #47, ...

........................................................................
.............................. CYCLE    6 ..............................
........................................................................
     iter. time                 ...        0 min,  0.002 sec
 * total energy  :   -19.1762908 Eh     change       -0.1813189E-01 Eh
   gradient norm :     0.0353457 Eh/α   predicted    -0.1697494E-01 (  -6.38%)
   displ. norm   :     0.7420080 α      lambda       -0.1527653E-01
   maximum displ.:     0.2633145 α      in ANC's #22, #29, #28, ...

........................................................................
.............................. CYCLE    7 ..............................
........................................................................
     iter. time                 ...        0 min,  0.002 sec
 * total energy  :   -19.1888394 Eh     change       -0.1254869E-01 Eh
   gradient norm :     0.0246530 Eh/α   predicted    -0.1184372E-01 (  -5.62%)
   displ. norm   :     0.7197300 α      lambda       -0.1010932E-01
   maximum displ.:     0.2751701 α      in ANC's #22, #29, #28, ...

........................................................................
.............................. CYCLE    8 ..............................
........................................................................
     iter. time                 ...        0 min,  0.002 sec
 * total energy  :   -19.1969772 Eh     change       -0.8137747E-02 Eh
   gradient norm :     0.0187130 Eh/α   predicted    -0.7673034E-02 (  -5.71%)
   displ. norm   :     0.6834714 α      lambda       -0.6363954E-02
   maximum displ.:     0.2810338 α      in ANC's #22, #29, #28, ...

........................................................................
.............................. CYCLE    9 ..............................
........................................................................
     iter. time                 ...        0 min,  0.002 sec
 * total energy  :   -19.2020479 Eh     change       -0.5070745E-02 Eh
   gradient norm :     0.0177407 Eh/α   predicted    -0.4668455E-02 (  -7.93%)
   displ. norm   :     0.6508432 α      lambda       -0.4135481E-02
   maximum displ.:     0.2823772 α      in ANC's #22, #29, #28, ...

........................................................................
.............................. CYCLE   10 ..............................
........................................................................
     iter. time                 ...        0 min,  0.002 sec
 * total energy  :   -19.2053550 Eh     change       -0.3307102E-02 Eh
   gradient norm :     0.0174523 Eh/α   predicted    -0.2943639E-02 ( -10.99%)
   displ. norm   :     0.6340555 α      lambda       -0.2965412E-02
   maximum displ.:     0.2817125 α      in ANC's #22, #29, #19, ...

........................................................................
.............................. CYCLE   11 ..............................
........................................................................
     iter. time                 ...        0 min,  0.002 sec
 * total energy  :   -19.2077535 Eh     change       -0.2398461E-02 Eh
   gradient norm :     0.0161059 Eh/α   predicted    -0.2078796E-02 ( -13.33%)
   displ. norm   :     0.6298792 α      lambda       -0.2347982E-02
   maximum displ.:     0.2773603 α      in ANC's #22, #19, #1, ...

........................................................................
.............................. CYCLE   12 ..............................
........................................................................
     iter. time                 ...        0 min,  0.002 sec
 * total energy  :   -19.2096593 Eh     change       -0.1905778E-02 Eh
   gradient norm :     0.0137760 Eh/α   predicted    -0.1639774E-02 ( -13.96%)
   displ. norm   :     0.6210304 α      lambda       -0.1900698E-02
   maximum displ.:     0.2633692 α      in ANC's #22, #19, #1, ...

........................................................................
.............................. CYCLE   13 ..............................
........................................................................
     iter. time                 ...        0 min,  0.002 sec
 * total energy  :   -19.2111856 Eh     change       -0.1526349E-02 Eh
   gradient norm :     0.0120068 Eh/α   predicted    -0.1316887E-02 ( -13.72%)
   displ. norm   :     0.5955803 α      lambda       -0.1479656E-02
   maximum displ.:     0.2407540 α      in ANC's #22, #19, #1, ...

........................................................................
.............................. CYCLE   14 ..............................
........................................................................
     iter. time                 ...        0 min,  0.002 sec
 * total energy  :   -19.2123593 Eh     change       -0.1173681E-02 Eh
   gradient norm :     0.0116864 Eh/α   predicted    -0.1002267E-02 ( -14.60%)
   displ. norm   :     0.5602494 α      lambda       -0.1150297E-02
   maximum displ.:     0.2177831 α      in ANC's #22, #19, #1, ...

........................................................................
.............................. CYCLE   15 ..............................
........................................................................
     iter. time                 ...        0 min,  0.002 sec
 * total energy  :   -19.2132692 Eh     change       -0.9098823E-03 Eh
   gradient norm :     0.0115060 Eh/α   predicted    -0.7556781E-03 ( -16.95%)
   displ. norm   :     0.5294903 α      lambda       -0.9456335E-03
   maximum displ.:     0.1991563 α      in ANC's #22, #19, #13, ...

........................................................................
.............................. CYCLE   16 ..............................
........................................................................
     iter. time                 ...        0 min,  0.002 sec
 * total energy  :   -19.2140115 Eh     change       -0.7423484E-03 Eh
   gradient norm :     0.0104132 Eh/α   predicted    -0.6053786E-03 ( -18.45%)
   displ. norm   :     0.4999316 α      lambda       -0.7696913E-03
   maximum displ.:     0.1806168 α      in ANC's #22, #19, #13, ...

........................................................................
.............................. CYCLE   17 ..............................
........................................................................
     iter. time                 ...        0 min,  0.002 sec
 * total energy  :   -19.2146069 Eh     change       -0.5953216E-03 Eh
   gradient norm :     0.0091333 Eh/α   predicted    -0.4810341E-03 ( -19.20%)
   displ. norm   :     0.4749756 α      lambda       -0.6060132E-03
   maximum displ.:     0.1717207 α      in ANC's #13, #22, #19, ...

........................................................................
.............................. CYCLE   18 ..............................
........................................................................
     iter. time                 ...        0 min,  0.002 sec
 * total energy  :   -19.2150789 Eh     change       -0.4720741E-03 Eh
   gradient norm :     0.0088596 Eh/α   predicted    -0.3713713E-03 ( -21.33%)
   displ. norm   :     0.4684143 α      lambda       -0.5296415E-03
   maximum displ.:     0.1861001 α      in ANC's #13, #5, #9, ...

........................................................................
.............................. CYCLE   19 ..............................
........................................................................
     iter. time                 ...        0 min,  0.002 sec
 * total energy  :   -19.2155002 Eh     change       -0.4213088E-03 Eh
   gradient norm :     0.0091526 Eh/α   predicted    -0.3229275E-03 ( -23.35%)
   displ. norm   :     0.4785658 α      lambda       -0.5166480E-03
   maximum displ.:     0.2014365 α      in ANC's #13, #9, #5, ...

........................................................................
.............................. CYCLE   20 ..............................
........................................................................
     iter. time                 ...        0 min,  0.002 sec
 * total energy  :   -19.2159128 Eh     change       -0.4125263E-03 Eh
   gradient norm :     0.0091483 Eh/α   predicted    -0.3174944E-03 ( -23.04%)
   displ. norm   :     0.4862341 α      lambda       -0.4894523E-03
   maximum displ.:     0.2114778 α      in ANC's #13, #9, #5, ...
 * RMSD in coord.:     0.8058469 α      energy gain  -0.3292337E+00 Eh

generating ANC from model Hessian ...
Using GFN-FF Lindh-Hessian
 Shifting diagonal of input Hessian by   1.000887097037610E-002
 Lowest  eigenvalues of input Hessian
    0.010000    0.000000    0.000000    0.000000    0.000000    0.000000
    0.000000    0.010019    0.010028    0.010035    0.010041    0.010060
    0.010110    0.010119    0.010127    0.010149    0.010168    0.010348
 Highest eigenvalues
    2.226329    2.252547    2.253478    2.264926    2.801258    2.839538
 

........................................................................
.............................. CYCLE   21 ..............................
........................................................................
     iter. time                 ...        0 min,  0.002 sec
 * total energy  :   -19.2162989 Eh     change       -0.3861161E-03 Eh
   gradient norm :     0.0087626 Eh/α   predicted     0.0000000E+00 (-100.00%)
   displ. norm   :     0.0854396 α      lambda       -0.2275598E-03
   maximum displ.:     0.0312454 α      in ANC's #12, #7, #10, ...

........................................................................
.............................. CYCLE   22 ..............................
........................................................................
     iter. time                 ...        0 min,  0.002 sec
 * total energy  :   -19.2164922 Eh     change       -0.1932692E-03 Eh
   gradient norm :     0.0053180 Eh/α   predicted    -0.1163404E-03 ( -39.80%)
   displ. norm   :     0.2566377 α      lambda       -0.4224750E-03
   maximum displ.:     0.1021350 α      in ANC's #12, #10, #7, ...

........................................................................
.............................. CYCLE   23 ..............................
........................................................................
     iter. time                 ...        0 min,  0.002 sec
 * total energy  :   -19.2167640 Eh     change       -0.2718049E-03 Eh
   gradient norm :     0.0038164 Eh/α   predicted    -0.2251524E-03 ( -17.16%)
   displ. norm   :     0.2007097 α      lambda       -0.1537804E-03
   maximum displ.:     0.0834274 α      in ANC's #12, #10, #7, ...

........................................................................
.............................. CYCLE   24 ..............................
........................................................................
     iter. time                 ...        0 min,  0.003 sec
 * total energy  :   -19.2168912 Eh     change       -0.1271925E-03 Eh
   gradient norm :     0.0051470 Eh/α   predicted    -0.7998879E-04 ( -37.11%)
   displ. norm   :     0.3697804 α      lambda       -0.2681347E-03
   maximum displ.:     0.1522590 α      in ANC's #12, #10, #7, ...

........................................................................
.............................. CYCLE   25 ..............................
........................................................................
     iter. time                 ...        0 min,  0.002 sec
 * total energy  :   -19.2171077 Eh     change       -0.2165544E-03 Eh
   gradient norm :     0.0055283 Eh/α   predicted    -0.1524008E-03 ( -29.62%)
   displ. norm   :     0.4481393 α      lambda       -0.2827224E-03
   maximum displ.:     0.1847961 α      in ANC's #12, #10, #5, ...

........................................................................
.............................. CYCLE   26 ..............................
........................................................................
     iter. time                 ...        0 min,  0.002 sec
 * total energy  :   -19.2173255 Eh     change       -0.2177844E-03 Eh
   gradient norm :     0.0053428 Eh/α   predicted    -0.1697570E-03 ( -22.05%)
   displ. norm   :     0.4112845 α      lambda       -0.2214341E-03
   maximum displ.:     0.1696514 α      in ANC's #12, #10, #5, ...

........................................................................
.............................. CYCLE   27 ..............................
........................................................................
     iter. time                 ...        0 min,  0.003 sec
 * total energy  :   -19.2174975 Eh     change       -0.1719715E-03 Eh
   gradient norm :     0.0051453 Eh/α   predicted    -0.1294493E-03 ( -24.73%)
   displ. norm   :     0.3869962 α      lambda       -0.2043825E-03
   maximum displ.:     0.1582829 α      in ANC's #12, #10, #5, ...

........................................................................
.............................. CYCLE   28 ..............................
........................................................................
     iter. time                 ...        0 min,  0.002 sec
 * total energy  :   -19.2176576 Eh     change       -0.1601215E-03 Eh
   gradient norm :     0.0046585 Eh/α   predicted    -0.1175079E-03 ( -26.61%)
   displ. norm   :     0.3901994 α      lambda       -0.1941876E-03
   maximum displ.:     0.1668387 α      in ANC's #10, #5, #12, ...

........................................................................
.............................. CYCLE   29 ..............................
........................................................................
     iter. time                 ...        0 min,  0.002 sec
 * total energy  :   -19.2178063 Eh     change       -0.1486969E-03 Eh
   gradient norm :     0.0041216 Eh/α   predicted    -0.1118780E-03 ( -24.76%)
   displ. norm   :     0.3720266 α      lambda       -0.1518755E-03
   maximum displ.:     0.1667256 α      in ANC's #10, #5, #12, ...

........................................................................
.............................. CYCLE   30 ..............................
........................................................................
     iter. time                 ...        0 min,  0.002 sec
 * total energy  :   -19.2179189 Eh     change       -0.1125907E-03 Eh
   gradient norm :     0.0034182 Eh/α   predicted    -0.8644860E-04 ( -23.22%)
   displ. norm   :     0.2863522 α      lambda       -0.9450428E-04
   maximum displ.:     0.1352605 α      in ANC's #10, #5, #12, ...

........................................................................
.............................. CYCLE   31 ..............................
........................................................................
     iter. time                 ...        0 min,  0.003 sec
 * total energy  :   -19.2179869 Eh     change       -0.6800069E-04 Eh
   gradient norm :     0.0026564 Eh/α   predicted    -0.5114262E-04 ( -24.79%)
   displ. norm   :     0.1955894 α      lambda       -0.5523448E-04
   maximum displ.:     0.0969402 α      in ANC's #10, #5, #12, ...

........................................................................
.............................. CYCLE   32 ..............................
........................................................................
     iter. time                 ...        0 min,  0.002 sec
 * total energy  :   -19.2180281 Eh     change       -0.4122297E-04 Eh
   gradient norm :     0.0022550 Eh/α   predicted    -0.2867591E-04 ( -30.44%)
   displ. norm   :     0.1647865 α      lambda       -0.4666854E-04
   maximum displ.:     0.0830131 α      in ANC's #10, #5, #4, ...

........................................................................
.............................. CYCLE   33 ..............................
........................................................................
     iter. time                 ...        0 min,  0.002 sec
 * total energy  :   -19.2180637 Eh     change       -0.3557320E-04 Eh
   gradient norm :     0.0021481 Eh/α   predicted    -0.2397793E-04 ( -32.60%)
   displ. norm   :     0.1643591 α      lambda       -0.4475769E-04
   maximum displ.:     0.0813937 α      in ANC's #10, #4, #5, ...

........................................................................
.............................. CYCLE   34 ..............................
........................................................................
     iter. time                 ...        0 min,  0.003 sec
 * total energy  :   -19.2180972 Eh     change       -0.3354666E-04 Eh
   gradient norm :     0.0021076 Eh/α   predicted    -0.2298384E-04 ( -31.49%)
   displ. norm   :     0.1520924 α      lambda       -0.3745183E-04
   maximum displ.:     0.0730239 α      in ANC's #4, #10, #5, ...

........................................................................
.............................. CYCLE   35 ..............................
........................................................................
     iter. time                 ...        0 min,  0.002 sec
 * total energy  :   -19.2181251 Eh     change       -0.2790228E-04 Eh
   gradient norm :     0.0018900 Eh/α   predicted    -0.1916091E-04 ( -31.33%)
   displ. norm   :     0.2045099 α      lambda       -0.2980381E-04
   maximum displ.:     0.1067779 α      in ANC's #4, #10, #5, ...

........................................................................
.............................. CYCLE   36 ..............................
........................................................................
     iter. time                 ...        0 min,  0.003 sec
 * total energy  :   -19.2181531 Eh     change       -0.2795327E-04 Eh
   gradient norm :     0.0016821 Eh/α   predicted    -0.1518241E-04 ( -45.69%)
   displ. norm   :     0.0897955 α      lambda       -0.1547821E-04
   maximum displ.:     0.0544933 α      in ANC's #4, #10, #8, ...

........................................................................
.............................. CYCLE   37 ..............................
........................................................................
     iter. time                 ...        0 min,  0.002 sec
 * total energy  :   -19.2181715 Eh     change       -0.1839429E-04 Eh
   gradient norm :     0.0012570 Eh/α   predicted    -0.7767672E-05 ( -57.77%)
   displ. norm   :     0.1581446 α      lambda       -0.2095427E-04
   maximum displ.:     0.0801063 α      in ANC's #4, #10, #5, ...

........................................................................
.............................. CYCLE   38 ..............................
........................................................................
     iter. time                 ...        0 min,  0.002 sec
 * total energy  :   -19.2181914 Eh     change       -0.1992241E-04 Eh
   gradient norm :     0.0014304 Eh/α   predicted    -0.1059495E-04 ( -46.82%)
   displ. norm   :     0.1206114 α      lambda       -0.1511902E-04
   maximum displ.:     0.0804232 α      in ANC's #4, #2, #10, ...

........................................................................
.............................. CYCLE   39 ..............................
........................................................................
     iter. time                 ...        0 min,  0.002 sec
 * total energy  :   -19.2182036 Eh     change       -0.1222154E-04 Eh
   gradient norm :     0.0018424 Eh/α   predicted    -0.7611532E-05 ( -37.72%)
   displ. norm   :     0.1011188 α      lambda       -0.1025006E-04
   maximum displ.:     0.0548655 α      in ANC's #4, #10, #5, ...

........................................................................
.............................. CYCLE   40 ..............................
........................................................................
     iter. time                 ...        0 min,  0.002 sec
 * total energy  :   -19.2182168 Eh     change       -0.1323637E-04 Eh
   gradient norm :     0.0012826 Eh/α   predicted    -0.5152644E-05 ( -61.07%)
   displ. norm   :     0.2025810 α      lambda       -0.2184813E-04
   maximum displ.:     0.1167479 α      in ANC's #4, #10, #5, ...

........................................................................
.............................. CYCLE   41 ..............................
........................................................................
     iter. time                 ...        0 min,  0.002 sec
 * total energy  :   -19.2182417 Eh     change       -0.2481033E-04 Eh
   gradient norm :     0.0011751 Eh/α   predicted    -0.1112625E-04 ( -55.15%)
   displ. norm   :     0.2186445 α      lambda       -0.1749817E-04
   maximum displ.:     0.1359236 α      in ANC's #4, #10, #13, ...

........................................................................
.............................. CYCLE   42 ..............................
........................................................................
     iter. time                 ...        0 min,  0.003 sec
 * total energy  :   -19.2182621 Eh     change       -0.2047073E-04 Eh
   gradient norm :     0.0017498 Eh/α   predicted    -0.8938888E-05 ( -56.33%)
   displ. norm   :     0.2238373 α      lambda       -0.1701396E-04
   maximum displ.:     0.1431084 α      in ANC's #4, #10, #13, ...
 * RMSD in coord.:     0.3869336 α      energy gain  -0.2349357E-02 Eh

generating ANC from model Hessian ...
Using GFN-FF Lindh-Hessian
 Shifting diagonal of input Hessian by   1.000936986093554E-002
 Lowest  eigenvalues of input Hessian
    0.010000    0.000000    0.000000    0.000000    0.000000    0.000000
    0.000000    0.010020    0.010027    0.010037    0.010042    0.010062
    0.010101    0.010119    0.010132    0.010152    0.010172    0.010356
 Highest eigenvalues
    2.230193    2.248558    2.254451    2.269919    2.803248    2.843086
 

........................................................................
.............................. CYCLE   43 ..............................
........................................................................
     iter. time                 ...        0 min,  0.003 sec
 * total energy  :   -19.2182830 Eh     change       -0.2088816E-04 Eh
   gradient norm :     0.0017399 Eh/α   predicted     0.0000000E+00 (-100.00%)
   displ. norm   :     0.0237400 α      lambda       -0.3077401E-05
   maximum displ.:     0.0093470 α      in ANC's #39, #4, #41, ...

........................................................................
.............................. CYCLE   44 ..............................
........................................................................
     iter. time                 ...        0 min,  0.003 sec
 * total energy  :   -19.2182930 Eh     change       -0.9986160E-05 Eh
   gradient norm :     0.0008041 Eh/α   predicted    -0.4325587E-05 ( -56.68%)
   displ. norm   :     0.0533688 α      lambda       -0.9068151E-05
   maximum displ.:     0.0210957 α      in ANC's #4, #39, #13, ...

........................................................................
.............................. CYCLE   45 ..............................
........................................................................
     iter. time                 ...        0 min,  0.002 sec
 * total energy  :   -19.2183029 Eh     change       -0.9864747E-05 Eh
   gradient norm :     0.0007512 Eh/α   predicted    -0.4979229E-05 ( -49.53%)
   displ. norm   :     0.0489652 α      lambda       -0.4637798E-05
   maximum displ.:     0.0213469 α      in ANC's #4, #13, #41, ...

........................................................................
.............................. CYCLE   46 ..............................
........................................................................
     iter. time                 ...        0 min,  0.003 sec
 * total energy  :   -19.2183084 Eh     change       -0.5482497E-05 Eh
   gradient norm :     0.0008967 Eh/α   predicted    -0.2348387E-05 ( -57.17%)
   displ. norm   :     0.0825700 α      lambda       -0.6650300E-05
   maximum displ.:     0.0373497 α      in ANC's #4, #41, #13, ...

........................................................................
.............................. CYCLE   47 ..............................
........................................................................
     iter. time                 ...        0 min,  0.002 sec
 * total energy  :   -19.2183157 Eh     change       -0.7316239E-05 Eh
   gradient norm :     0.0008606 Eh/α   predicted    -0.3339664E-05 ( -54.35%)
   displ. norm   :     0.0868349 α      lambda       -0.5657326E-05
   maximum displ.:     0.0410288 α      in ANC's #4, #41, #9, ...

........................................................................
.............................. CYCLE   48 ..............................
........................................................................
     iter. time                 ...        0 min,  0.003 sec
 * total energy  :   -19.2183220 Eh     change       -0.6320496E-05 Eh
   gradient norm :     0.0007811 Eh/α   predicted    -0.2853989E-05 ( -54.85%)
   displ. norm   :     0.0898822 α      lambda       -0.5509694E-05
   maximum displ.:     0.0438373 α      in ANC's #4, #9, #13, ...

........................................................................
.............................. CYCLE   49 ..............................
........................................................................
     iter. time                 ...        0 min,  0.002 sec
 * total energy  :   -19.2183283 Eh     change       -0.6290133E-05 Eh
   gradient norm :     0.0007999 Eh/α   predicted    -0.2765976E-05 ( -56.03%)
   displ. norm   :     0.1058931 α      lambda       -0.6190019E-05
   maximum displ.:     0.0522194 α      in ANC's #4, #9, #13, ...

........................................................................
.............................. CYCLE   50 ..............................
........................................................................
     iter. time                 ...        0 min,  0.002 sec
 * total energy  :   -19.2183354 Eh     change       -0.7082312E-05 Eh
   gradient norm :     0.0009244 Eh/α   predicted    -0.3113434E-05 ( -56.04%)
   displ. norm   :     0.1301110 α      lambda       -0.6640881E-05
   maximum displ.:     0.0647825 α      in ANC's #4, #9, #13, ...

........................................................................
.............................. CYCLE   51 ..............................
........................................................................
     iter. time                 ...        0 min,  0.002 sec
 * total energy  :   -19.2183430 Eh     change       -0.7644000E-05 Eh
   gradient norm :     0.0009648 Eh/α   predicted    -0.3349521E-05 ( -56.18%)
   displ. norm   :     0.1379843 α      lambda       -0.6616240E-05
   maximum displ.:     0.0699337 α      in ANC's #4, #13, #9, ...

........................................................................
.............................. CYCLE   52 ..............................
........................................................................
     iter. time                 ...        0 min,  0.002 sec
 * total energy  :   -19.2183505 Eh     change       -0.7473038E-05 Eh
   gradient norm :     0.0008041 Eh/α   predicted    -0.3337065E-05 ( -55.35%)
   displ. norm   :     0.1377299 α      lambda       -0.5707331E-05
   maximum displ.:     0.0722080 α      in ANC's #4, #13, #9, ...

........................................................................
.............................. CYCLE   53 ..............................
........................................................................
     iter. time                 ...        0 min,  0.002 sec
 * total energy  :   -19.2183569 Eh     change       -0.6389959E-05 Eh
   gradient norm :     0.0006710 Eh/α   predicted    -0.2880833E-05 ( -54.92%)
   displ. norm   :     0.1068083 α      lambda       -0.4574528E-05
   maximum displ.:     0.0584777 α      in ANC's #4, #13, #9, ...

........................................................................
.............................. CYCLE   54 ..............................
........................................................................
     iter. time                 ...        0 min,  0.002 sec
 * total energy  :   -19.2183619 Eh     change       -0.5045635E-05 Eh
   gradient norm :     0.0006304 Eh/α   predicted    -0.2301272E-05 ( -54.39%)
   displ. norm   :     0.1249009 α      lambda       -0.4161357E-05
   maximum displ.:     0.0695578 α      in ANC's #4, #13, #9, ...

........................................................................
.............................. CYCLE   55 ..............................
........................................................................
     iter. time                 ...        0 min,  0.002 sec
 * total energy  :   -19.2183661 Eh     change       -0.4182088E-05 Eh
   gradient norm :     0.0008723 Eh/α   predicted    -0.2097284E-05 ( -49.85%)
   displ. norm   :     0.0842189 α      lambda       -0.4615634E-05
   maximum displ.:     0.0468279 α      in ANC's #4, #10, #13, ...

   *** GEOMETRY OPTIMIZATION CONVERGED AFTER 55 ITERATIONS ***

------------------------------------------------------------------------
 total energy gain   :        -0.3316871 Eh     -208.1368 kcal/mol
 total RMSD          :         1.0215887 a0        0.5406 Å
 total power (kW/mol):       -15.8335316 (step)-3560.8161 (real)
------------------------------------------------------------------------

 ANCopt (total)                0 d,  0 h,  0 min,  0.245 sec
 optimizer setup                ...        0 min,  0.001 sec (  0.505%)
 model hessian                  ...        0 min,  0.011 sec (  4.364%)
 ANC generation                 ...        0 min,  0.055 sec ( 22.419%)
 coordinate transformation      ...        0 min,  0.008 sec (  3.167%)
 single point calculation       ...        0 min,  0.138 sec ( 56.614%)
 optimization log               ...        0 min,  0.015 sec (  6.219%)
 hessian update                 ...        0 min,  0.004 sec (  1.683%)
 rational function              ...        0 min,  0.009 sec (  3.516%)

================
 final structure:
================
$coord
       -7.46085796231262        5.80464933254141        2.53899142470386      c
       -4.58967908891312        6.10237114748701        3.12417748546585      c
       -3.41799303040600        5.82656815543992        0.44968987779354      c
       -5.26236331655634        5.27637495534354       -1.27334424243128      c
       -7.77813018426683        5.31247438351253        0.01109978147536      c
       -8.97924373159039        6.04283373323489        3.91137546237938      h
       -4.24659604747205        8.04961817770651        3.82807165680881      h
       -1.40648856487352        5.95880278721282        0.05970705756314      h
       -4.97342556658192        5.01550128103559       -3.29454089487671      h
       -9.58242664286131        5.26719567106549       -0.97843729031310      h
       -5.41062119355915        2.34440846492275        1.72176302372534      fe
       -3.44197407655153        4.09483427173920        5.04234828982506      c
       -1.81415408216419        2.09290710475760        3.63010449169126      c
       -3.28389564403755       -0.32059698484745        3.60883429696309      c
       -5.39567104643747        0.07513348994580        5.46850483991830      c
       -5.43821353753173        2.45548673150465        6.38336514802787      c
       -2.26017910531902        5.05330339914862        6.47906748596044      h
       -6.57774669159870       -1.45435039949279        6.16024833577910      h
       -6.75700599359823        3.14655535173573        7.78709052027483      h
        0.96731020718047        2.16121174892831        2.92350031187801      c
       -3.60726520093659       -1.60061121256704        0.36301609457702      p
        2.07015306057063        4.74604218577712        3.29940081116433      n
        0.85594641416187        1.67155636032498        0.64997562837854      h
        2.45362525792467        0.07561442563697        4.20172095237859      c
        4.49071402985628       -1.13237641374718        3.07084109109306      c
        1.72158228418553       -0.71752400411836        6.60117691256931      c
        5.68499474216029       -3.11233787278475        4.27240250574869      c
        2.92960736962166       -2.68240138664566        7.80904764083807      c
        0.14901449112833        0.20045232214200        7.50634000257546      h
        4.90712375027131       -3.89734679478204        6.63641669536403      c
        7.22576431498232       -4.08330202067238        3.36913237926453      h
        2.31675523321845       -3.27650985837935        9.65801778848573      h
        5.84906149287400       -5.44784075329196        7.56180113561766      h
        5.57780803160508       -0.02799737881036        0.04957627483590      p
        3.02961388905900        5.21879911000407        5.85530027612081      c
        4.81322191136718        4.23441319099036        6.13583669719089      h
        3.33535110599116        7.23379519528079        6.13010166118933      h
        1.69559356017564        4.56200287215509        7.27217367807619      h
        3.57073197837295        5.91550984149611        1.21878188557559      c
        2.94650319147594        7.85249674816655        0.91567665965089      h
        5.56292711582435        5.95939110239479        1.71833251593871      h
        3.34421024057336        4.86826696691936       -0.53230149588303      h
       -0.72756096576625        0.54969279530298       -2.23509631805939      rh
        6.72994486961527       -2.95581184035390       -1.50247732461151      c
        4.41922741823644       -4.68064138319404       -1.82476805311850      c
        7.96824827848433       -2.39208285732898       -4.06845822545150      c
        8.11534114036437       -3.87168552145047       -0.27198193710539      h
        5.07686159549841       -7.13286826402157       -3.25244285106527      c
        3.57934754829456       -5.10100615707135        0.02569486766841      h
        2.96597044108908       -3.63493692196868       -2.86900130774511      h
        8.62020664732889       -4.83873185807156       -5.51337031301830      c
        9.67248301264985       -1.24175685559032       -3.81452529412994      h
        6.68148845518019       -1.23308077017379       -5.20117086825601      h
        6.27969992210270       -6.53661906870022       -5.83115173102435      c
        6.39960601373419       -8.25328179182964       -2.11671045591408      h
        3.39357743394402       -8.32504132453937       -3.48647125266288      h
       10.08252425188062       -5.87672968903523       -4.47416806339647      h
        9.46135717574625       -4.39715011767937       -7.35962062082127      h
        6.76876700267983       -8.28531387977401       -6.83813435713784      h
        4.88996971987123       -5.57769266898665       -7.03220582943492      h
        8.53732469381314        1.58017620294053        1.07163606023885      c
       10.76220809100364       -0.11712256924959        1.85416003061058      c
        9.36891037106141        3.46367265760084       -0.97764174870010      c
        7.94951099068975        2.65392684160140        2.74522543997427      h
       13.02340897023331        1.47945048951069        2.76930908452371      c
       10.18071469846119       -1.45323931311436        3.32539862091088      h
       11.34936680975449       -1.26800212349953        0.23833528822609      h
       11.60136475967370        5.09288398632348       -0.05682015743661      c
        7.77359241333589        4.63776163955738       -1.59403621776578      h
        9.94530887647946        2.42185421172127       -2.66957906128875      h
       13.83816743621015        3.41297159831427        0.74994638522047      c
       12.49644864002299        2.48175374618822        4.50526806421808      h
       14.61633810127496        0.25728729461852        3.29882042633680      h
       10.99162785822475        6.24585696281802        1.55376849014581      h
       12.18159485533930        6.44544989734630       -1.52112495435011      h
       15.41713867251613        4.57270323554060        1.43754464768425      h
       14.57197871554762        2.40623649953495       -0.90637290277423      h
       -6.97795606418856       -0.96669570709968       -0.48416418292542      c
       -7.90260431062279       -2.77952912056566       -2.56520553428046      c
       -9.01540316955401       -0.33667089377429        1.47690984859786      c
       -6.16601202843566        1.04455018125285       -1.26251203463497      h
      -10.40374079972005       -1.89738420499918       -3.74085319178148      c
       -6.44259988160559       -3.02924887574984       -4.01444920711486      h
       -8.17282245449600       -4.65382314961336       -1.72368707178572      h
      -11.66477069668023        0.23136236078039        0.36513096431226      c
       -8.29982422187587        1.46467350436236        2.74100139990351      h
       -9.14751573791412       -1.91406125452182        2.82835520654036      h
      -12.45614433194918       -1.64903772131791       -1.70465341518089      c
      -10.11564979242084       -0.05502043186746       -4.64644956072575      h
      -11.00795953647882       -3.17873809088081       -5.25895738811152      h
      -11.69584287396571        2.14021537982835       -0.42453033804546      h
      -13.07561726494964        0.25976117436502        1.88750721068385      h
      -14.26852635032320       -1.09375661190641       -2.55328591891371      h
      -12.79650641658416       -3.50536577339294       -0.84702971391283      h
       -3.35426298850657       -5.08154509884125        1.05784620179794      c
       -2.56091275314171       -6.54724669570123       -1.31734793039027      c
       -1.48383397696692       -5.54339711474696        3.23172585564919      c
       -5.24744330814594       -5.67946749022748        1.65207122106300      h
       -2.24444102996603       -9.39036121666744       -0.76845646844508      c
       -0.76915211403888       -5.76942696081862       -2.00055088314412      h
       -3.91968890208654       -6.23920999834654       -2.85287187364856      h
       -1.13903744004007       -8.38152724104803        3.78810302389601      c
       -2.10751516329958       -4.54188480901192        4.93900973108065      h
        0.33623233535815       -4.69183280900149        2.73459736103856      h
       -0.35061452257238       -9.83687965647586        1.39597509158858      c
       -1.65992739538475      -10.40858694516094       -2.48073558730132      h
       -4.08235817114350      -10.19364384822155       -0.24714916540816      h
        0.24736445328826       -8.66340194472900        5.30797142303680      h
       -2.91892923332083       -9.15927423586996        4.51058856752612      h
        1.53587393485020       -9.21795206034301        0.80612799227259      h
       -0.16389744670723      -11.86507175870413        1.79943573317749      h
        0.23515455684001        1.83689404191545       -8.95185476772819      c
       -1.55602892446430        3.03152437601803       -6.85485451943685      c
        1.40955062845015       -0.10298818281310       -6.97837487864635      c
        1.61939978995695        3.17660435774625       -9.70136105248115      h
       -0.80340550676050        0.91546067977008      -10.48319816570825      h
       -2.85129383228525        0.58222878488640       -5.87352341668683      c
        0.44867024492312        3.67426374693383       -4.80651524091169      c
       -2.80672487749113        4.58200148288798       -7.47266968411550      h
       -1.07489831110923       -1.31175578891044       -5.95688479439875      c
        2.23892117753822        1.79764567815923       -4.88570242855808      c
        2.86342011765282       -1.40591370935711       -7.71030162744667      h
       -4.86558685420908        0.37163715039619       -5.48529077536150      h
        0.54502473062505        5.42196321155287       -3.71378046091976      h
       -1.41780979679373       -3.32333083613130       -5.64395697539200      h
        3.97958773339365        1.73951438773873       -3.78024039549108      h
$eht charge=1 unpaired=1
$end
 
 Bond Distances (Angstroems)
 ---------------------------
C1-C2=1.5586         C1-C5=1.3731         C1-H6=1.0904         C1-Fe11=2.1719       C2-C1=1.5586         C2-C3=1.5520         
C2-H7=1.1106         C2-Fe11=2.1666       C2-C12=1.5899        C3-C2=1.5520         C3-C4=1.3670         C3-H8=1.0865         
C3-Fe11=2.2272       C4-C3=1.3670         C4-C5=1.4949         C4-H9=1.0892         C4-Fe11=2.2193       C5-C1=1.3731         
C5-C4=1.4949         C5-H10=1.0892        C5-Fe11=2.2036       H6-C1=1.0904         H7-C2=1.1106         H8-C3=1.0865         
H9-C4=1.0892         H10-C5=1.0892        Fe11-C1=2.1719       Fe11-C2=2.1666       Fe11-C3=2.2272       Fe11-C4=2.2193       
Fe11-C5=2.2036       Fe11-C12=2.2430      Fe11-C13=2.1586      Fe11-C14=2.0622      Fe11-C15=2.3180      Fe11-C16=2.4676      
Fe11-P21=2.4054      Fe11-C78=2.2629      Fe11-C80=2.3809      Fe11-H81=1.7683      Fe11-H86=1.6868      C12-C2=1.5899        
C12-Fe11=2.2430      C12-C13=1.5565       C12-C16=1.5401       C12-H17=1.1074       C13-Fe11=2.1586      C13-C12=1.5565       
C13-C14=1.4954       C13-C20=1.5191       C14-Fe11=2.0622      C14-C13=1.4954       C14-C15=1.5037       C14-P21=1.8543       
C15-Fe11=2.3180      C15-C14=1.5037       C15-C16=1.3496       C15-H18=1.0864       C16-Fe11=2.4676      C16-C12=1.5401       
C16-C15=1.3496       C16-H19=1.0828       H17-C12=1.1074       H18-C15=1.0864       H19-C16=1.0828       C20-C13=1.5191       
C20-N22=1.5004       C20-H23=1.2321       C20-C24=1.5147       P21-Fe11=2.4054      P21-C14=1.8543       P21-Rh43=2.3468      
P21-C78=1.8695       P21-C95=1.8831       N22-C20=1.5004       N22-C35=1.4662       N22-C39=1.4919       H23-C20=1.2321       
H23-Rh43=1.8400      C24-C20=1.5147       C24-C25=1.3888       C24-C26=1.3923       C25-C24=1.3888       C25-C27=1.3789       
C25-P34=1.7968       C26-C24=1.3923       C26-C28=1.3778       C26-H29=1.0761       C27-C25=1.3789       C27-C30=1.3809       
C27-H31=1.0758       C28-C26=1.3778       C28-C30=1.3760       C28-H32=1.0777       H29-C26=1.0761       C30-C27=1.3809       
C30-C28=1.3760       C30-H33=1.0777       H31-C27=1.0758       H32-C28=1.0777       H33-C30=1.0777       P34-C25=1.7968       
P34-C44=1.8565       P34-C61=1.8626       C35-N22=1.4662       C35-H36=1.0882       C35-H37=1.0883       C35-H38=1.0869       
H36-C35=1.0882       H37-C35=1.0883       H38-C35=1.0869       C39-N22=1.4919       C39-H40=1.0888       C39-H41=1.0871       
C39-H42=1.0863       H40-C39=1.0888       H41-C39=1.0871       H42-C39=1.0863       Rh43-P21=2.3468      Rh43-H23=1.8400      
Rh43-C117=2.2294     Rh43-C118=2.2300     Rh43-C120=2.2097     Rh43-C121=2.2063     C44-P34=1.8565       C44-C45=1.5354       
C44-C46=1.5369       C44-H47=1.0938       C45-C44=1.5354       C45-C48=1.5414       C45-H49=1.0981       C45-H50=1.0968       
C46-C44=1.5369       C46-C51=1.5427       C46-H52=1.0963       C46-H53=1.0950       H47-C44=1.0938       C48-C45=1.5414       
C48-C54=1.5384       C48-H55=1.0967       C48-H56=1.0985       H49-C45=1.0981       H50-C45=1.0968       C51-C46=1.5427       
C51-C54=1.5393       C51-H57=1.0968       C51-H58=1.0987       H52-C46=1.0963       H53-C46=1.0950       C54-C48=1.5384       
C54-C51=1.5393       C54-H59=1.0987       C54-H60=1.0965       H55-C48=1.0967       H56-C48=1.0985       H57-C51=1.0968       
H58-C51=1.0987       H59-C54=1.0987       H60-C54=1.0965       C61-P34=1.8626       C61-C62=1.5376       C61-C63=1.5372       
C61-H64=1.0972       C62-C61=1.5376       C62-C65=1.5428       C62-H66=1.0958       C62-H67=1.0948       C63-C61=1.5372       
C63-C68=1.5415       C63-H69=1.0978       C63-H70=1.0948       H64-C61=1.0972       C65-C62=1.5428       C65-C71=1.5410       
C65-H72=1.0968       C65-H73=1.0988       H66-C62=1.0958       H67-C62=1.0948       C68-C63=1.5415       C68-C71=1.5406       
C68-H74=1.0967       C68-H75=1.0986       H69-C63=1.0978       H70-C63=1.0948       C71-C65=1.5410       C71-C68=1.5406       
C71-H76=1.0987       C71-H77=1.0967       H72-C65=1.0968       H73-C65=1.0988       H74-C68=1.0967       H75-C68=1.0986       
H76-C71=1.0987       H77-C71=1.0967       C78-Fe11=2.2629      C78-P21=1.8695       C78-C79=1.5403       C78-C80=1.5331       
C78-H81=1.2194       C79-C78=1.5403       C79-C82=1.5352       C79-H83=1.0966       C79-H84=1.0966       C80-Fe11=2.3809      
C80-C78=1.5331       C80-C85=1.5499       C80-H86=1.2245       C80-H87=1.1014       H81-Fe11=1.7683      H81-C78=1.2194       
C82-C79=1.5352       C82-C88=1.5355       C82-H89=1.0970       C82-H90=1.0988       H83-C79=1.0966       H84-C79=1.0966       
C85-C80=1.5499       C85-C88=1.5379       C85-H91=1.0933       C85-H92=1.0985       H86-Fe11=1.6868      H86-C80=1.2245       
H87-C80=1.1014       C88-C82=1.5355       C88-C85=1.5379       C88-H93=1.0990       C88-H94=1.0970       H89-C82=1.0970       
H90-C82=1.0988       H91-C85=1.0933       H92-C85=1.0985       H93-C88=1.0990       H94-C88=1.0970       C95-P21=1.8831       
C95-C96=1.5355       C95-C97=1.5371       C95-H98=1.0967       C96-C95=1.5355       C96-C99=1.5414       C96-H100=1.0950      
C96-H101=1.0972      C97-C95=1.5371       C97-C102=1.5413      C97-H103=1.0982      C97-H104=1.0954      H98-C95=1.0967       
C99-C96=1.5414       C99-C105=1.5401      C99-H106=1.0986      C99-H107=1.0967      H100-C96=1.0950      H101-C96=1.0972      
C102-C97=1.5413      C102-C105=1.5393     C102-H108=1.0988     C102-H109=1.0967     H103-C97=1.0982      H104-C97=1.0954      
C105-C99=1.5401      C105-C102=1.5393     C105-H110=1.0960     C105-H111=1.0988     H106-C99=1.0986      H107-C99=1.0967      
H108-C102=1.0988     H109-C102=1.0967     H110-C105=1.0960     H111-C105=1.0988     C112-C113=1.5904     C112-C114=1.5908     
C112-H115=1.0938     C112-H116=1.0938     C113-C112=1.5904     C113-C117=1.5554     C113-C118=1.5543     C113-H119=1.1037     
C114-C112=1.5908     C114-C120=1.5588     C114-C121=1.5590     C114-H122=1.1033     H115-C112=1.0938     H116-C112=1.0938     
C117-Rh43=2.2294     C117-C113=1.5554     C117-C120=1.3748     C117-H123=1.0912     C118-Rh43=2.2300     C118-C113=1.5543     
C118-C121=1.3731     C118-H124=1.0919     H119-C113=1.1037     C120-Rh43=2.2097     C120-C114=1.5588     C120-C117=1.3748     
C120-H125=1.0925     C121-Rh43=2.2063     C121-C114=1.5590     C121-C118=1.3731     C121-H126=1.0916     H122-C114=1.1033     
H123-C117=1.0912     H124-C118=1.0919     H125-C120=1.0925     H126-C121=1.0916     
 C  H  Rav=1.0999 sigma=0.0271  Rmin=1.0758  Rmax=1.2321    71
 C  C  Rav=1.5060 sigma=0.0708  Rmin=1.3496  Rmax=1.5908    51
 N  C  Rav=1.4862 sigma=0.0145  Rmin=1.4662  Rmax=1.5004     3
 P  C  Rav=1.8538 sigma=0.0272  Rmin=1.7968  Rmax=1.8831     6
 Fe H  Rav=1.7275 sigma=0.0408  Rmin=1.6868  Rmax=1.7683     2
 Fe C  Rav=2.2401 sigma=0.1035  Rmin=2.0622  Rmax=2.4676    12
 Fe P  Rav=2.4054 sigma=0.0000  Rmin=2.4054  Rmax=2.4054     1
 Rh H  Rav=1.8400 sigma=0.0000  Rmin=1.8400  Rmax=1.8400     1
 Rh C  Rav=2.2189 sigma=0.0109  Rmin=2.2063  Rmax=2.2300     4
 Rh P  Rav=2.3468 sigma=0.0000  Rmin=2.3468  Rmax=2.3468     1
 
 selected bond angles (degree)
 --------------------
C5-C1-C2=109.39                H6-C1-C2=125.05                H6-C1-C5=125.50                Fe11-C1-C2= 68.77              
Fe11-C1-C5= 72.97              Fe11-C1-H6=126.74              C3-C2-C1=101.46                H7-C2-C1=108.65                
H7-C2-C3=109.13                Fe11-C2-C1= 69.13              Fe11-C2-C3= 71.42              Fe11-C2-H7=177.76              
C12-C2-C1=115.58               C12-C2-C3=111.52               C12-C2-H7=110.08               C12-C2-Fe11= 71.46             
C4-C3-C2=110.06                H8-C3-C2=123.95                H8-C3-C4=125.91                Fe11-C3-C2= 67.24              
Fe11-C3-C4= 71.78              Fe11-C3-H8=125.07              C5-C4-C3=109.26                H9-C4-C3=125.57                
H9-C4-C5=124.97                Fe11-C4-C3= 72.41              Fe11-C4-C5= 69.68              Fe11-C4-H9=128.14              
C4-C5-C1=109.66                H10-C5-C1=125.43               H10-C5-C4=124.18               Fe11-C5-C1= 70.46              
Fe11-C5-C4= 70.81              Fe11-C5-H10=132.86             
 
 selected dihedral angles (degree)
 ---------------------------------
C3-C2-C1-C5=  2.85            C3-C2-C1-H6=185.59            C3-C2-C1-Fe11= 64.84          H7-C2-C1-C5=117.78            
H7-C2-C1-H6=300.51            H7-C2-C1-Fe11=179.76          Fe11-C2-C1-C5=298.02          Fe11-C2-C1-H6=120.75          
C12-C2-C1-C5=242.06           C12-C2-C1-H6= 64.80           C12-C2-C1-Fe11=304.04         C4-C3-C2-C1=355.91            
C4-C3-C2-H7=241.34            C4-C3-C2-Fe11= 59.06          C4-C3-C2-C12=119.51           H8-C3-C2-C1=178.91            
H8-C3-C2-H7= 64.35            H8-C3-C2-Fe11=242.06          H8-C3-C2-C12=302.51           Fe11-C3-C2-C1=296.85          
Fe11-C3-C2-H7=182.29          Fe11-C3-C2-C12= 60.45         C5-C4-C3-C2=  3.85            C5-C4-C3-H8=180.78            
C5-C4-C3-Fe11= 60.22          H9-C4-C3-C2=178.90            H9-C4-C3-H8=355.82            H9-C4-C3-Fe11=235.26          
Fe11-C4-C3-C2=303.63          Fe11-C4-C3-H8=120.56          C4-C5-C1-C2=359.19            C4-C5-C1-H6=176.44            
C4-C5-C1-Fe11=299.81          H10-C5-C1-C2=188.67           H10-C5-C1-H6=  5.92           H10-C5-C1-Fe11=129.29         
Fe11-C5-C1-C2= 59.38          Fe11-C5-C1-H6=236.63          C1-C5-C4-C3=358.05            C1-C5-C4-H9=182.97            
C1-C5-C4-Fe11= 59.97          H10-C5-C4-C3=168.72           H10-C5-C4-H9=353.64           H10-C5-C4-Fe11=230.64         
Fe11-C5-C4-C3=298.08          Fe11-C5-C4-H9=123.01          
 
 CMA Distance (Angstroems)
 ---------------------------
R(CMA):  4.1499
           -------------------------------------------------
          |                Final Singlepoint                |
           -------------------------------------------------
         :::::::::::::::::::::::::::::::::::::::::::::::::::::
         ::                     SUMMARY                     ::
         :::::::::::::::::::::::::::::::::::::::::::::::::::::
         :: total energy             -19.218366096237 Eh    ::
         :: gradient norm              0.000872255377 Eh/a0 ::
         ::.................................................::
         :: bond energy              -21.742838004584 Eh    ::
         :: angle energy               0.144089679612 Eh    ::
         :: torsion energy             0.074955166587 Eh    ::
         :: repulsion energy           1.330764610232 Eh    ::
         :: electrostat energy         1.195158684543 Eh    ::
         :: dispersion energy         -0.192573304557 Eh    ::
         :: HB energy                 -0.001249730752 Eh    ::
         :: XB energy                 -0.005014531712 Eh    ::
         :: bonded atm energy         -0.021658665608 Eh    ::
         :: external energy            0.000000000000 Eh    ::
         :: add. restraining           0.000000000000 Eh    ::
         :: total charge               1.000000000000 e     ::
         :::::::::::::::::::::::::::::::::::::::::::::::::::::

           -------------------------------------------------
          |                Property Printout                |
           -------------------------------------------------
           -------------------------------------------------
          |                Geometry Summary                 |
           -------------------------------------------------

      molecular mass/u    :      906.8054579
   center of mass at/Å    :       -0.0091120      -0.0368001       0.0294145
  moments of inertia/u·Å² :        0.7196959E+04   0.1211357E+05   0.1290634E+05
rotational constants/cm⁻¹ :        0.2342327E-02   0.1391632E-02   0.1306151E-02

 * 123 selected distances

     #   Z          #   Z                                           value/Å
     1   6 c        2   6 c                                       1.5585819
     2   6 c        3   6 c                                       1.5520147
     3   6 c        4   6 c                                       1.3670054
     1   6 c        5   6 c                                       1.3731241
     4   6 c        5   6 c                                       1.4948843
     1   6 c        6   1 h                                       1.0903704
     2   6 c        7   1 h                                       1.1106350
     3   6 c        8   1 h                                       1.0865187
     4   6 c        9   1 h                                       1.0892283
     5   6 c       10   1 h                                       1.0892211
     2   6 c       11  26 fe                                      2.1665913
     2   6 c       12   6 c                                       1.5898946
    12   6 c       13   6 c                                       1.5565318
    11  26 fe      14   6 c                                       2.0621797
    13   6 c       14   6 c                                       1.4953911
    14   6 c       15   6 c                                       1.5036991
    12   6 c       16   6 c                                       1.5401475
    15   6 c       16   6 c                                       1.3496469
    12   6 c       17   1 h                                       1.1074183
    15   6 c       18   1 h                                       1.0864427
    16   6 c       19   1 h                                       1.0828413
    13   6 c       20   6 c                                       1.5190705
    11  26 fe      21  15 p                                       2.4053692 (max)
    14   6 c       21  15 p                                       1.8542616
    24   6 c       25   6 c                                       1.3888118
    24   6 c       26   6 c                                       1.3922838
    25   6 c       27   6 c                                       1.3789413
    26   6 c       28   6 c                                       1.3777950
    26   6 c       29   1 h                                       1.0760622
    27   6 c       30   6 c                                       1.3809281
    28   6 c       30   6 c                                       1.3760366
    27   6 c       31   1 h                                       1.0757588 (min)
    28   6 c       32   1 h                                       1.0776579
    30   6 c       33   1 h                                       1.0777062
    25   6 c       34  15 p                                       1.7968251
    22   7 n       35   6 c                                       1.4661826
    35   6 c       36   1 h                                       1.0882249
    35   6 c       37   1 h                                       1.0882541
    35   6 c       38   1 h                                       1.0868793
    39   6 c       40   1 h                                       1.0888010
    39   6 c       41   1 h                                       1.0871107
    39   6 c       42   1 h                                       1.0863382
    21  15 p       43  45 rh                                      2.3467500
    34  15 p       44   6 c                                       1.8565290
    44   6 c       45   6 c                                       1.5353733
    44   6 c       46   6 c                                       1.5369337
    44   6 c       47   1 h                                       1.0937809
    45   6 c       48   6 c                                       1.5413649
    45   6 c       49   1 h                                       1.0981311
    45   6 c       50   1 h                                       1.0967991
    46   6 c       51   6 c                                       1.5427048
    46   6 c       52   1 h                                       1.0963230
    46   6 c       53   1 h                                       1.0950357
    48   6 c       54   6 c                                       1.5384479
    51   6 c       54   6 c                                       1.5393309
    48   6 c       55   1 h                                       1.0966702
    48   6 c       56   1 h                                       1.0985357
    51   6 c       57   1 h                                       1.0967834
    51   6 c       58   1 h                                       1.0987495
    54   6 c       59   1 h                                       1.0987451
    54   6 c       60   1 h                                       1.0964855
    34  15 p       61   6 c                                       1.8626414
    61   6 c       62   6 c                                       1.5376468
    61   6 c       63   6 c                                       1.5372243
    61   6 c       64   1 h                                       1.0972445
    62   6 c       66   1 h                                       1.0957785
    62   6 c       67   1 h                                       1.0947920
    63   6 c       68   6 c                                       1.5415411
    63   6 c       69   1 h                                       1.0977675
    63   6 c       70   1 h                                       1.0948053
    65   6 c       72   1 h                                       1.0967960
    65   6 c       73   1 h                                       1.0987902
    68   6 c       74   1 h                                       1.0967027
    68   6 c       75   1 h                                       1.0986375
    71   6 c       76   1 h                                       1.0987177
    71   6 c       77   1 h                                       1.0967367
    21  15 p       78   6 c                                       1.8695107
    78   6 c       79   6 c                                       1.5402670
    78   6 c       80   6 c                                       1.5331475
    11  26 fe      81   1 h                                       1.7682872
    78   6 c       81   1 h                                       1.2194279
    79   6 c       82   6 c                                       1.5351624
    79   6 c       83   1 h                                       1.0965952
    79   6 c       84   1 h                                       1.0965785
    80   6 c       85   6 c                                       1.5498537
    11  26 fe      86   1 h                                       1.6867623
    80   6 c       86   1 h                                       1.2245421
    80   6 c       87   1 h                                       1.1014032
    82   6 c       88   6 c                                       1.5355394
    85   6 c       88   6 c                                       1.5379119
    82   6 c       89   1 h                                       1.0969942
    82   6 c       90   1 h                                       1.0988030
    85   6 c       91   1 h                                       1.0932667
    85   6 c       92   1 h                                       1.0984634
    88   6 c       93   1 h                                       1.0990138
    88   6 c       94   1 h                                       1.0969831
    21  15 p       95   6 c                                       1.8831351
    95   6 c       96   6 c                                       1.5354562
    95   6 c       97   6 c                                       1.5371269
    95   6 c       98   1 h                                       1.0966548
    96   6 c       99   6 c                                       1.5414177
    96   6 c      100   1 h                                       1.0950487
    96   6 c      101   1 h                                       1.0971968
    97   6 c      102   6 c                                       1.5412984
    97   6 c      103   1 h                                       1.0981956
    97   6 c      104   1 h                                       1.0954020
   102   6 c      105   6 c                                       1.5393454
    99   6 c      106   1 h                                       1.0986438
    99   6 c      107   1 h                                       1.0966825
   102   6 c      108   1 h                                       1.0987998
   102   6 c      109   1 h                                       1.0966732
   105   6 c      110   1 h                                       1.0960269
   105   6 c      111   1 h                                       1.0987544
   112   6 c      115   1 h                                       1.0938387
   112   6 c      116   1 h                                       1.0938312
   113   6 c      119   1 h                                       1.1036759
   117   6 c      120   6 c                                       1.3748131
   118   6 c      121   6 c                                       1.3731068
   114   6 c      122   1 h                                       1.1033147
   117   6 c      123   1 h                                       1.0912412
   118   6 c      124   1 h                                       1.0919284
   120   6 c      125   1 h                                       1.0924590
   121   6 c      126   1 h                                       1.0916127

 * 8 distinct bonds (by element types)

   Z      Z             #   av. dist./Å        max./Å        min./Å
   1 H    6 C          70     1.0980047     1.2245421     1.0757588
   6 C    6 C          40     1.4929951     1.5898946     1.3496469
   6 C    7 N           1     1.4661826     1.4661826     1.4661826
   6 C   15 P           6     1.8538171     1.8831351     1.7968251
   1 H   26 Fe          2     1.7275248     1.7682872     1.6867623
   6 C   26 Fe          2     2.1143855     2.1665913     2.0621797
  15 P   26 Fe          1     2.4053692     2.4053692     2.4053692
  15 P   45 Rh          1     2.3467500     2.3467500     2.3467500


optimized geometry written to: xtbopt.coord


           -------------------------------------------------
          | TOTAL ENERGY              -19.218366096237 Eh   |
          | GRADIENT NORM               0.000872255377 Eh/α |
           -------------------------------------------------
########################################################################
[WARNING] Runtime exception occurred
-1- gfnff_setup: Could not read topology file.
########################################################################

------------------------------------------------------------------------
 * finished run on 2024/02/05 at 14:11:34.933     
------------------------------------------------------------------------
 total:
 * wall-time:     0 d,  0 h,  0 min,  0.585 sec
 *  cpu-time:     0 d,  0 h,  0 min,  0.270 sec
 * ratio c/w:     0.462 speedup
 SCF:
 * wall-time:     0 d,  0 h,  0 min,  0.043 sec
 *  cpu-time:     0 d,  0 h,  0 min,  0.005 sec
 * ratio c/w:     0.115 speedup
 ANC optimizer:
 * wall-time:     0 d,  0 h,  0 min,  0.269 sec
 *  cpu-time:     0 d,  0 h,  0 min,  0.240 sec
 * ratio c/w:     0.892 speedup

