126
 energy: -18.886679044336 gnorm: 0.293797072632 xtb: 6.6.1 (8d0f1dd)
c           -3.80716651660147        2.19239729326817        1.10359466294666
c           -2.59516695925819        2.86612738658882        1.52129921083216
c           -1.76093681174217        2.68631487185352        0.33690959892396
c           -2.57610551746316        2.45548440899922       -0.73396760481077
c           -3.82293800417245        2.11189131670103       -0.26858560784090
h           -4.52615664405494        1.85424787039487        1.79919693113091
h           -2.72464717898588        3.88750805868048        1.85437645659889
h           -0.78848558180529        3.09747082033947        0.36336185190905
h           -2.41335990278645        2.51532261340342       -1.76867694547501
h           -4.51014458497306        1.70840162310263       -0.94741450321517
fe          -2.53212854538384        0.95181596752718        0.51773811718379
c           -1.91231789900446        1.93600482564257        2.45235357669557
c           -1.04881827816456        1.10808145544137        1.60184908338344
c           -1.54056916958310       -0.19037129718533        1.56460654106259
c           -2.61840015282206       -0.21856004853346        2.48892316494206
c           -2.88179220275732        0.97747367320543        2.94927790210628
h           -1.42057615564329        2.45875700359238        3.26177488396105
h           -3.10965339277050       -1.09932627935662        2.83085476378778
h           -3.67547233580054        1.24734780654125        3.60676791177715
c            0.36666492918500        1.30150166072822        1.26825580610438
p           -1.40804051028423       -1.06998655604294        0.04518506401564
n            0.79398443485739        2.66945312663983        1.56637274056183
h            0.49259243391789        1.12627716337545        0.16660534450104
c            1.14214192612144        0.21712901895422        2.01260539999197
c            2.32253281630349       -0.36415657073652        1.54545394907455
c            0.61286537533031       -0.19532980371647        3.23556459927869
c            2.91384326042271       -1.37128777956144        2.30650077178271
c            1.24035747388886       -1.15757915265545        3.99866697616552
h           -0.32588360019561        0.22606192935540        3.56408907688133
c            2.39453581733060       -1.75837470819451        3.52488428936331
h            3.79401586920859       -1.87278646221226        1.93853936925267
h            0.82093261962423       -1.45312740778061        4.94743961352222
h            2.88394814549840       -2.53084443928329        4.09800440971542
p            3.03951267070072        0.20292393681916       -0.06620421177599
c            1.20549514677666        2.88166819990159        2.94148269112249
h            2.23002124626362        2.53574237764029        3.13014396642639
h            1.15742732933605        3.94972692647680        3.14931096220906
h            0.54506532355840        2.35767262510374        3.62144785270276
c            1.78004657474407        3.23607125830855        0.67457013095167
h            1.82825884348555        4.30935133990416        0.85960891378811
h            2.78302128012826        2.82017708888764        0.83088586438544
h            1.49083606289343        3.07942745049938       -0.36060508151776
rh          -0.59767168088278        0.73779953527342       -1.04982324771134
c            3.43682122562362       -1.46165918141275       -0.84745874284066
c            2.12350685078876       -2.21882564885119       -1.04276603350223
c            4.10728138166739       -1.24260324211671       -2.20410458759128
h            4.10187603420517       -2.05314362165009       -0.21167495255713
c            2.36856273949910       -3.55091376805397       -1.74597170158861
h            1.64839897762098       -2.38825411884724       -0.07134233480689
h            1.44227549450449       -1.60647134873089       -1.64238085826452
c            4.35417402857129       -2.57284358946117       -2.91015700699570
h            5.05715039800780       -0.71998042760629       -2.08067403350935
h            3.46758854664517       -0.61527410702677       -2.83117295976241
c            3.04502054967609       -3.33188585964310       -3.09534150102881
h            3.00826104617081       -4.17637730811928       -1.11907500229101
h            1.42643727824550       -4.08441393585077       -1.89144822875480
h            5.04069167615029       -3.17766689681189       -2.31316642846856
h            4.82455392316345       -2.39490397086562       -3.87910401479281
h            3.23540675910168       -4.29259185699531       -3.57606117655029
h            2.38014388876399       -2.76081803460536       -3.74864653884638
c            4.72806538002780        0.83772896618761        0.52896532337445
c            5.84285150142575       -0.16516172294950        0.81467415110389
c            5.22216713255108        1.87088557434169       -0.49113904515471
h            4.50349929107550        1.36468385340758        1.46797220247097
c            7.07966257006589        0.56516410586191        1.33883180435322
h            5.53021964260458       -0.89196290676066        1.56440274931945
h            6.11217047647999       -0.70189710455446       -0.09663710334040
c            6.45852084583230        2.59944178445257        0.02624747266536
h            4.43467832869021        2.59875865061366       -0.70784580510769
h            5.47120877869043        1.36988248574854       -1.42920180217356
c            7.56937790582804        1.60150907255191        0.33341979313778
h            6.83530141360691        1.06111407978855        2.28157354316250
h            7.86971552908601       -0.16097919419942        1.53991713546877
h            6.20240237253225        3.14952236058780        0.93526463903175
h            6.79818858007814        3.32283648900510       -0.71734411694937
h            8.44077438240093        2.12349632255679        0.73148962258891
h            7.87315487864430        1.10014417151563       -0.58861406476847
c           -3.08612539530635       -0.61276603581145       -0.57135645835973
c           -3.78382409054708       -1.42178058144730       -1.62860294420079
c           -3.95292628420871       -0.41892348149709        0.60895370176625
h           -2.98814253083112        0.43201453394416       -0.88684966257140
c           -5.03832392550817       -0.63961717191679       -1.99519267325062
h           -3.14718639562891       -1.57475252804779       -2.49760056759917
h           -4.06661643055156       -2.39926845057649       -1.23784572880413
c           -5.38104981898497       -0.02983321468624        0.39981819302506
h           -3.67491217673770        0.43184693570922        1.25033816370114
h           -3.87762022926406       -1.29824971624593        1.20918495751280
c           -6.01252890245993       -0.68264207605856       -0.82592141163127
h           -4.73823344274792        0.39489870587246       -2.18847823615428
h           -5.51010048883428       -1.04239525895672       -2.89013198015081
h           -5.43109704642382        1.04074094586009        0.33365005433612
h           -5.93020523796900       -0.30763627598140        1.30167558842796
h           -6.93962185024034       -0.17119804371598       -1.08145979392039
h           -6.25712706403207       -1.72412905175315       -0.61662099536040
c           -1.67702579101008       -2.81109010900454        0.64305341634258
c           -1.38934076018891       -3.85127396723310       -0.43266162792411
c           -0.79184681299390       -3.03470260114695        1.86292644405818
h           -2.72597181385142       -2.89749936632366        0.94442844856710
c           -1.58604287909657       -5.26054439146873        0.12257712587030
h           -0.35690077551342       -3.73983702317366       -0.76606859601508
h           -2.04127946889383       -3.69528082203583       -1.29456089874577
c           -0.98608524927403       -4.44193191717873        2.41724321195564
h           -1.02193396556492       -2.28410008439342        2.62063409072026
h            0.25517996464903       -2.89786715111636        1.58269684747451
c           -0.69136014813227       -5.48164592147849        1.33913346450734
h           -1.35603053775938       -5.99820484498921       -0.64750946078801
h           -2.63060885917290       -5.39584677754352        0.41130434232374
h           -0.32873197009952       -4.59568355705107        3.27380362236756
h           -2.01595594592797       -4.56025818906371        2.76084486168963
h            0.35522286424644       -5.40239960784663        1.03747342191969
h           -0.84953580386811       -6.48460212220027        1.73676802548370
c           -0.17345027349655        1.34775507689483       -4.52598369239081
c           -1.09613731254419        1.95225631207485       -3.46173069361410
c            0.51377835025433        0.39984681889116       -3.53894983310835
h            0.50792934404703        2.07627504617584       -4.96436980985817
h           -0.71504398374204        0.82776382071883       -5.31599463557913
c           -1.68173365908688        0.70852967999896       -2.80061689847729
c           -0.11688072396859        2.32426381711752       -2.35214574270850
h           -1.79258303932661        2.71662012866500       -3.79844854233400
c           -0.67332319432456       -0.26861715629240       -2.86689228711232
c            0.88233780083603        1.34731258515166       -2.41183761503347
h            1.29642475428870       -0.24689229776178       -3.92179223293140
h           -2.74661561306272        0.55445135630140       -2.75436052877051
h           -0.02480248710295        3.33518595193730       -1.98422326325786
h           -0.81364920662291       -1.33904125449091       -2.85286098232294
h            1.89416095618509        1.43636454268112       -2.05087297735931
126
 energy: -19.010739531386 gnorm: 0.181472839093 xtb: 6.6.1 (8d0f1dd)
c           -3.85893260823796        2.24768493866782        1.09243330317153
c           -2.60062824393105        2.90138151882481        1.53818053035829
c           -1.75925625545642        2.77298135713480        0.30063967001513
c           -2.57821291226680        2.49696492215985       -0.77057253651503
c           -3.85698134343679        2.13431103042677       -0.28506068911154
h           -4.57973048911735        1.87889667573624        1.80326607546919
h           -2.72946556423688        3.92968833386824        1.87870118745397
h           -0.75363033352879        3.14707037632092        0.32177718281703
h           -2.41331637591319        2.54886745544157       -1.82166185481884
h           -4.56457135014254        1.71978942884191       -0.96737703482944
fe          -2.52476965925699        0.97801047334978        0.52797991224432
c           -1.90813795549127        1.95378288856138        2.50053973048135
c           -1.01086348882693        1.09516841710708        1.64119966518768
c           -1.53078345785506       -0.22755397363010        1.58329440535915
c           -2.62036314978873       -0.25472893386695        2.54290116257546
c           -2.88180246624863        0.96604062771846        3.03181024113382
h           -1.39861197756043        2.47977640539579        3.30393299228229
h           -3.12649183184510       -1.13963228593262        2.86645002942308
h           -3.68475081187955        1.23586392766742        3.68077067365856
c            0.41056158868222        1.29700659517135        1.29470171845592
p           -1.41016221688658       -1.09270926393646        0.03251681593770
n            0.81431283428995        2.67985983234350        1.57892500820074
h            0.51222868096503        1.12037659042114        0.16196639597897
c            1.16963463240350        0.21719360086207        2.02670022341100
c            2.33395185148036       -0.36827924510009        1.55219696249521
c            0.63151579870574       -0.19707859226162        3.24309835359003
c            2.91983506443113       -1.37142946867903        2.30565762984777
c            1.24772611886610       -1.16281914047538        3.99944809508298
h           -0.30772444604456        0.22445025718170        3.57065758396000
c            2.39745839331132       -1.75994090148735        3.52480067205995
h            3.79532262641373       -1.87380404131755        1.93593865066211
h            0.82479686710837       -1.45784312882427        4.94622175686271
h            2.88386945924810       -2.53272777938314        4.09706666793351
p            3.04022525088852        0.19171053787039       -0.05138961572826
c            1.21280925191515        2.88932547616188        2.95622511483679
h            2.23096539670708        2.53860116947848        3.13606800502544
h            1.16202372206784        3.95491045001233        3.16310887663625
h            0.54729817358929        2.36073652416379        3.62964032153897
c            1.79366692548437        3.24680038550601        0.66799938215607
h            1.83880503700810        4.31759428975723        0.85040922777492
h            2.78588708690938        2.82412859782599        0.82710599922697
h            1.49559641592830        3.08192976656053       -0.36315609363948
rh          -0.53696540771987        0.68384736999540       -1.09690839463332
c            3.43653983391379       -1.45553315552108       -0.84509226098582
c            2.12320255226410       -2.21781502660162       -1.03795469253102
c            4.11074277589074       -1.23863230848956       -2.20222522736515
h            4.10204505959375       -2.04677316347187       -0.20711643946313
c            2.36527971988695       -3.55350344754329       -1.74589210646953
h            1.64364822942800       -2.38393596181574       -0.06725678008217
h            1.44045043264592       -1.60477942009851       -1.63748913324267
c            4.35649355424499       -2.57187265738919       -2.91337758008335
h            5.05994072431929       -0.71019485964781       -2.07964345640756
h            3.46924401649285       -0.60942770838001       -2.82864817746952
c            3.04532310871505       -3.33493357464116       -3.09731076677901
h            3.00576614195579       -4.18132280444742       -1.11762075803590
h            1.42270499263707       -4.09112264440058       -1.88883343637263
h            5.04532695231446       -3.17848546951036       -2.31588598681364
h            4.83177763073490       -2.39692897024477       -3.88391834683408
h            3.23363668620407       -4.29718733950472       -3.58357874144796
h            2.37904144226131       -2.76315258637840       -3.75233120674289
c            4.72053836833333        0.83633365613696        0.52736616048356
c            5.83980741776889       -0.16728253295045        0.81757640632369
c            5.21574277029985        1.87246230774113       -0.49152373411680
h            4.49833183309317        1.36287753230700        1.46620845767613
c            7.08309117766377        0.56109285375963        1.34046632598226
h            5.52380894160645       -0.90040091307961        1.56277535099692
h            6.10658279376364       -0.70603950413450       -0.09615216836003
c            6.45849694985458        2.60218367539405        0.02397031997394
h            4.42626194567740        2.59802226473267       -0.71410719655725
h            5.46472324720075        1.36935051283329       -1.43143566271089
c            7.57234162912905        1.60288113740384        0.33465826021952
h            6.83898477783864        1.05866953540517        2.28543761326806
h            7.87625730302534       -0.16423186393411        1.54710833509808
h            6.20303879961851        3.15474040052353        0.93455719040525
h            6.79970866668813        3.33131748418358       -0.71811323740762
h            8.44924046006037        2.12520586759112        0.72978649383043
h            7.87799100442508        1.10091801946246       -0.58951562472487
c           -3.08884001418126       -0.63356889357229       -0.57915125691400
c           -3.79202477302851       -1.43094047601669       -1.64518018973128
c           -3.97705998532441       -0.44286225567838        0.60498617813101
h           -2.96906624180438        0.43819903732278       -0.90142568863713
c           -5.04992572922634       -0.64935304129511       -2.00812025807703
h           -3.14566846804374       -1.58590860660165       -2.50965357196651
h           -4.06794633757590       -2.40914478530727       -1.24556708542867
c           -5.41844594788782       -0.04714423587770        0.39765932552051
h           -3.66849771875204        0.42003384104853        1.26292235560907
h           -3.90084261659392       -1.33618287239967        1.21425155581461
c           -6.02812438676861       -0.68840355266903       -0.83579452558669
h           -4.75370411028316        0.38741477187086       -2.20388587438654
h           -5.51700788498518       -1.04631922064077       -2.90858605329379
h           -5.48031525259077        1.03254314355378        0.33178413230904
h           -5.96330846205135       -0.31823951723585        1.30401633642077
h           -6.95685009993864       -0.17558593904126       -1.09039139450441
h           -6.27107005920075       -1.73070699880968       -0.61903921564764
c           -1.67765471894186       -2.81988436073400        0.64402667586052
c           -1.39106223192674       -3.85413444945184       -0.43649248953661
c           -0.79103708663635       -3.03631818489938        1.86595943558477
h           -2.72728447613164       -2.90123478716153        0.94482680595278
c           -1.58527575868285       -5.26568533116337        0.11919899307413
h           -0.35736221950746       -3.73647176486743       -0.77098262369307
h           -2.04077900646613       -3.69187746728587       -1.30204884468828
c           -0.98341302695149       -4.44521659250548        2.42217772850957
h           -1.01872552001693       -2.28241084210930        2.62599290064471
h            0.25695781785939       -2.89446035653104        1.58306204513522
c           -0.69120208100252       -5.48711632368540        1.34083631457064
h           -1.35966992218701       -6.00679240269517       -0.65293895066010
h           -2.63281757430502       -5.40031538481926        0.40819160397327
h           -0.32817624464197       -4.59913877089226        3.28418070656489
h           -2.01604948027040       -4.56162969606315        2.76688980334311
h            0.35821860038469       -5.40772652366168        1.03860675058192
h           -0.84465406881293       -6.49411346880211        1.73891145436832
c           -0.16806659874589        1.34977331399793       -4.54535728399349
c           -1.09956168732767        1.95907000859279       -3.46583152322739
c            0.52530108279741        0.38993124073170       -3.54001449264276
h            0.51479284563151        2.08196426120067       -4.97676814456930
h           -0.71579032997867        0.82567601426217       -5.32979990288118
c           -1.69644580693439        0.68073724939682       -2.84376436784000
c           -0.08423344866539        2.34728741041473       -2.36961144715218
h           -1.80263233538530        2.72981543215929       -3.80240649398218
c           -0.69827215128153       -0.29484194212501       -2.90961120147483
c            0.91819862980714        1.38030920218094       -2.43044990378192
h            1.31302539429215       -0.26106766911893       -3.92792277607808
h           -2.76589222914987        0.53831659133415       -2.76349714849694
h           -0.01350326273240        3.35324944751706       -1.96928829759405
h           -0.82259432319979       -1.36913391097507       -2.85838464540450
h            1.92420874913708        1.44696226708175       -2.04038479194016
126
 energy: -19.088657331984 gnorm: 0.101673406495 xtb: 6.6.1 (8d0f1dd)
c           -3.91648967130889        2.31955914577105        1.07879425378943
c           -2.60305840190593        2.93028435718458        1.55047603989920
c           -1.76010403648969        2.86728717579410        0.26508082492865
c           -2.57122951521821        2.54447831421360       -0.79670198852495
c           -3.88971290735020        2.17184760504478       -0.29459204166166
h           -4.62852047776220        1.90912781161156        1.80204326290943
h           -2.72773115839078        3.96356170562871        1.90495412922713
h           -0.72192318986517        3.18216640527761        0.28387521381558
h           -2.39896522072663        2.58345101034719       -1.85995646468610
h           -4.61869220609500        1.75172447470073       -0.97856378466331
fe          -2.51960253776456        0.99763286336034        0.54858931047687
c           -1.90527861667362        1.96766553800766        2.53400662475441
c           -0.96860236608303        1.08673639080061        1.68053817652802
c           -1.51314261086438       -0.26482749764610        1.61293130731249
c           -2.61344610110662       -0.27839780613705        2.60009173574992
c           -2.87452255455498        0.95209713524031        3.09386129477459
h           -1.38085179609571        2.49916465876093        3.33261762236967
h           -3.13726924205960       -1.16537210406958        2.90525995176034
h           -3.69510433579166        1.22461299610695        3.72497014250864
c            0.45659582184320        1.29661659343446        1.32541121674758
p           -1.41685396342409       -1.11344782838285        0.02074208668785
n            0.83782243802798        2.69609726303206        1.59322676936698
h            0.52883607966998        1.11568406643373        0.15647143526172
c            1.20348578076756        0.22296273469051        2.04618730084044
c            2.34971725692910       -0.37222506303498        1.55940629813746
c            0.65670717107456       -0.19711191225209        3.25675390550984
c            2.92969403797088       -1.37359918276252        2.30434183044411
c            1.25927278502236       -1.17111107724020        4.00303704606092
h           -0.28251686464403        0.22239467959663        3.58532028915773
c            2.40355443164572       -1.76416901361330        3.52452592975707
h            3.80038294999416       -1.87744884080935        1.93164542948434
h            0.83129001778278       -1.46626174260856        4.94697937758561
h            2.88625845726903       -2.53775326517808        4.09615732865488
p            3.04209991606923        0.17718773783930       -0.03281347199223
c            1.22102689107906        2.89986345585716        2.97458538070596
h            2.23319031004913        2.54077373925324        3.14238747300469
h            1.16894770235287        3.96331728099664        3.18228631793543
h            0.55019751085662        2.36617685147051        3.64035472999944
c            1.80993219367082        3.26091925601817        0.65846209981311
h            1.85378162735645        4.32980568705043        0.83785606158311
h            2.78982207500797        2.82651063297764        0.82299933525646
h            1.50159763980236        3.08588767604171       -0.36738848984937
rh          -0.49736901590525        0.65315078691801       -1.11969431311224
c            3.43666112857866       -1.44839082497120       -0.84219548615105
c            2.12337125748528       -2.21683260543497       -1.03225158939922
c            4.11504491728817       -1.23403984254072       -2.19995249142956
h            4.10227272780722       -2.03789850319629       -0.20109766167150
c            2.36183397961776       -3.55656693638341       -1.74575024901122
h            1.63760679370184       -2.37807706198777       -0.06288774852171
h            1.43868624886804       -1.60318176095044       -1.63083086201709
c            4.35920552366434       -2.57049931780979       -2.91710880117426
h            5.06236683184566       -0.69808155951568       -2.07900418089989
h            3.47213476424084       -0.60225714161644       -2.82469772359088
c            3.04594019870649       -3.33843598936482       -3.09934888132160
h            3.00190394723477       -4.18717507616569       -1.11629444788557
h            1.41960416019868       -4.09945842660931       -1.88501195407886
h            5.05070418523371       -3.17856138650320       -2.32019914351476
h            4.84076774161301       -2.39991751168245       -3.88832528138255
h            3.23090310632706       -4.30121808253552       -3.59276165337701
h            2.37838081502480       -2.76687704630107       -3.75627948164108
c            4.71189573000321        0.83476032290821        0.52556335454288
c            5.83633155492654       -0.16975661193399        0.82122404701000
c            5.20804544604273        1.87422403862916       -0.49193225950639
h            4.49180359954862        1.36090693451575        1.46418041287640
c            7.08682915723902        0.55616384745740        1.34219951467894
h            5.51637203673285       -0.91086918658335        1.55929907508131
h            6.09901745796537       -0.71109274436321       -0.09436011173259
c            6.45817461787711        2.60510040314039        0.02115304420850
h            4.41611559571538        2.59608091829940       -0.72270283711273
h            5.45598546070609        1.36930038892943       -1.43338625903374
c            7.57538003138827        1.60439506315649        0.33615020181699
h            6.84390775629263        1.05469967331617        2.28936793439336
h            7.88316803446782       -0.16718701587599        1.55647329614736
h            6.20390849317433        3.16088972002167        0.93238620344908
h            6.80071529373281        3.34124319048523       -0.71756689233945
h            8.45860581094852        2.12627611191631        0.72645548596689
h            7.88388398625506        1.10250537587630       -0.58957410524735
c           -3.10049348118138       -0.66815518709347       -0.58610920386621
c           -3.80702697912588       -1.44547136996034       -1.66645211940223
c           -4.01479430665748       -0.47978404013605        0.60738887574977
h           -2.94550458958007        0.44056552340607       -0.91726426709902
c           -5.06693709703993       -0.66359406868979       -2.02456366783045
h           -3.14691690345471       -1.60136355476841       -2.52396992206416
h           -4.07325514307828       -2.42454506212523       -1.25856585517751
c           -5.46523414772332       -0.07052956606379        0.39612127025787
h           -3.66443383457483        0.40456920215021        1.28431578132955
h           -3.93742488887298       -1.38198179150514        1.22571484746202
c           -6.05028983053645       -0.69687770424117       -0.84902452492074
h           -4.77541502307286        0.37486665760263       -2.22427983897895
h           -5.52737977694170       -1.05149402022507       -2.93335419265822
h           -5.53738993686441        1.01719181989542        0.33220713096919
h           -6.00888805237644       -0.33102924319345        1.30667842787367
h           -6.98044343396518       -0.18247414116618       -1.10439090981281
h           -6.29190574845373       -1.73982835068516       -0.62421239819124
c           -1.67681591411968       -2.82843901707309        0.64537949298598
c           -1.39252214021195       -3.85754497023862       -0.44057867434504
c           -0.78922136666338       -3.03975522338291        1.86982208852494
h           -2.72708097162691       -2.90641257344652        0.94581660950996
c           -1.58381338841205       -5.27258832980546        0.11521945390440
h           -0.35849012589027       -3.73235640005847       -0.77761643758963
h           -2.03835369169418       -3.68755797579772       -1.31091243734442
c           -0.97958314944243       -4.45063252200154        2.42803963129726
h           -1.01253459771083       -2.28342971625301        2.63302363615560
h            0.25902756706345       -2.89074835242202        1.58454625454001
c           -0.69079744658722       -5.49485882355241        1.34292619626504
h           -1.36501073616869       -6.01743295112851       -0.65891376170659
h           -2.63407473302317       -5.40650957698971        0.40377808795638
h           -0.32852536676206       -4.60456315274355        3.29667029626127
h           -2.01450430210976       -4.56411154048056        2.77442217880459
h            0.36100224572620       -5.41556426910858        1.04052242271088
h           -0.83726087993036       -6.50590214931573        1.74090688485379
c           -0.16065695800531        1.35352569155862       -4.57137660298269
c           -1.10016631007683        1.96592603746330       -3.47401288624980
c            0.53774976580336        0.38144794337708       -3.54475842021543
h            0.52384633475389        2.08947906396917       -4.99309644218340
h           -0.71581572754007        0.82391886483061       -5.34733217250376
c           -1.70585719443894        0.65685946161437       -2.89739629130527
c           -0.05044427508712        2.36714365920003       -2.39748522919405
h           -1.80874092938182        2.74183932711461       -3.80966782926559
c           -0.72081116234182       -0.31162181033480       -2.95194181961110
c            0.94735683239266        1.41184342467776       -2.45217871715644
h            1.32998261714032       -0.27464381390636       -3.93597971872691
h           -2.77866383403852        0.52489799666103       -2.77581373865195
h           -0.00362455548575        3.36370550143187       -1.95435425679702
h           -0.83023723505598       -1.39156511535375       -2.85384343273736
h            1.94592031988425        1.45444956514223       -2.02328038983921
126
 energy: -19.131810314789 gnorm: 0.063255517678 xtb: 6.6.1 (8d0f1dd)
c           -3.96648688353922        2.39053387911578        1.07042906871974
c           -2.60936732892439        2.95479669126106        1.55948886376877