 Entering Gaussian System, Link 0=g16
 Input=free_ligand_L13_SP.inp
 Output=free_ligand_L13_SP.log
 Initial command:
 /sw/arch/RHEL8/EB_production/2022/software/Gaussian/g16.c02/l1.exe "/scratch-local/adarsh.3962510/Gau-2048573.inp" -scrdir="/scratch-local/adarsh.3962510/"
 Entering Link 1 = /sw/arch/RHEL8/EB_production/2022/software/Gaussian/g16.c02/l1.exe PID=   2048606.
  
 Copyright (c) 1988-2021, Gaussian, Inc.  All Rights Reserved.
  
 This is part of the Gaussian(R) 16 program.  It is based on
 the Gaussian(R) 09 system (copyright 2009, Gaussian, Inc.),
 the Gaussian(R) 03 system (copyright 2003, Gaussian, Inc.),
 the Gaussian(R) 98 system (copyright 1998, Gaussian, Inc.),
 the Gaussian(R) 94 system (copyright 1995, Gaussian, Inc.),
 the Gaussian 92(TM) system (copyright 1992, Gaussian, Inc.),
 the Gaussian 90(TM) system (copyright 1990, Gaussian, Inc.),
 the Gaussian 88(TM) system (copyright 1988, Gaussian, Inc.),
 the Gaussian 86(TM) system (copyright 1986, Carnegie Mellon
 University), and the Gaussian 82(TM) system (copyright 1983,
 Carnegie Mellon University). Gaussian is a federally registered
 trademark of Gaussian, Inc.
  
 This software contains proprietary and confidential information,
 including trade secrets, belonging to Gaussian, Inc.
  
 This software is provided under written license and may be
 used, copied, transmitted, or stored only in accord with that
 written license.
  
 The following legend is applicable only to US Government
 contracts under FAR:
  
                    RESTRICTED RIGHTS LEGEND
  
 Use, reproduction and disclosure by the US Government is
 subject to restrictions as set forth in subparagraphs (a)
 and (c) of the Commercial Computer Software - Restricted
 Rights clause in FAR 52.227-19.
  
 Gaussian, Inc.
 340 Quinnipiac St., Bldg. 40, Wallingford CT 06492
  
  
 ---------------------------------------------------------------
 Warning -- This program may not be used in any manner that
 competes with the business of Gaussian, Inc. or will provide
 assistance to any competitor of Gaussian, Inc.  The licensee
 of this program is prohibited from giving any competitor of
 Gaussian, Inc. access to this program.  By using this program,
 the user acknowledges that Gaussian, Inc. is engaged in the
 business of creating and licensing software in the field of
 computational chemistry and represents and warrants to the
 licensee that it is not a competitor of Gaussian, Inc. and that
 it will not use this program in any manner prohibited above.
 ---------------------------------------------------------------
  

 Cite this work as:
 Gaussian 16, Revision C.02,
 M. J. Frisch, G. W. Trucks, H. B. Schlegel, G. E. Scuseria, 
 M. A. Robb, J. R. Cheeseman, G. Scalmani, V. Barone, 
 G. A. Petersson, H. Nakatsuji, X. Li, M. Caricato, A. V. Marenich, 
 J. Bloino, B. G. Janesko, R. Gomperts, B. Mennucci, H. P. Hratchian, 
 J. V. Ortiz, A. F. Izmaylov, J. L. Sonnenberg, D. Williams-Young, 
 F. Ding, F. Lipparini, F. Egidi, J. Goings, B. Peng, A. Petrone, 
 T. Henderson, D. Ranasinghe, V. G. Zakrzewski, J. Gao, N. Rega, 
 G. Zheng, W. Liang, M. Hada, M. Ehara, K. Toyota, R. Fukuda, 
 J. Hasegawa, M. Ishida, T. Nakajima, Y. Honda, O. Kitao, H. Nakai, 
 T. Vreven, K. Throssell, J. A. Montgomery, Jr., J. E. Peralta, 
 F. Ogliaro, M. J. Bearpark, J. J. Heyd, E. N. Brothers, K. N. Kudin, 
 V. N. Staroverov, T. A. Keith, R. Kobayashi, J. Normand, 
 K. Raghavachari, A. P. Rendell, J. C. Burant, S. S. Iyengar, 
 J. Tomasi, M. Cossi, J. M. Millam, M. Klene, C. Adamo, R. Cammi, 
 J. W. Ochterski, R. L. Martin, K. Morokuma, O. Farkas, 
 J. B. Foresman, and D. J. Fox, Gaussian, Inc., Wallingford CT, 2019.
 
 ******************************************
 Gaussian 16:  ES64L-G16RevC.02  7-Dec-2021
                29-Sep-2023 
 ******************************************
 %nprocshared=32
 Will use up to   32 processors via shared memory.
 %mem=30GB
 %chk=free_ligand_L13.chk
 ----------------------------------------------------------------------
 #p pop=nbo pbe1pbe/def2svpp empiricaldispersion=gd3bj integral=grid=ul
 trafinegrid scf=(xqc,maxconventionalcycles=90) nosymm
 ----------------------------------------------------------------------
 1/38=1,172=1/1;
 2/12=2,15=1,17=6,18=5,40=1/2;
 3/5=43,7=202,11=2,25=1,30=1,74=-13,75=-5,124=41/1,2,3;
 4//1;
 5/5=2,8=3,13=1,38=5,85=90/2,8;
 6/7=2,8=2,9=2,10=2,28=1,40=1/1,7;
 99/5=1,9=1/99;
 Leave Link    1 at Fri Sep 29 19:31:47 2023, MaxMem=  4026531840 cpu:               0.2 elap:               0.8
 (Enter /sw/arch/RHEL8/EB_production/2022/software/Gaussian/g16.c02/l101.exe)
 ----
 Cisa
 ----
 Symbolic Z-matrix:
 Charge =  0 Multiplicity = 1
 P                     0.17591   0.81686  -0.71818 
 P                    -2.6501   -0.73667  -0.26541 
 C                    -1.48799  -2.18697  -0.09644 
 C                    -2.10451  -3.47411   0.43926 
 C                     0.53798  -0.56916   0.39566 
 C                    -0.26719  -1.73817   0.65721 
 C                     0.31311  -2.41115   1.77434 
 C                     1.47109  -1.69599   2.18894 
 C                     1.62477  -0.57459   1.33545 
 H                    -1.19638  -2.36668  -1.14692 
 H                    -1.35217  -4.28077   0.41297 
 H                    -2.96054  -3.78832  -0.17697 
 H                    -2.46168  -3.37578   1.47626 
 H                     2.41738   0.1706    1.39023 
 C                    -3.09329   1.43291   3.76232 
 C                    -2.75732   0.07294   3.79013 
 C                    -2.63788  -0.60867   2.57589 
 C                    -2.83454   0.058     1.36158 
 C                    -3.16132   1.41827   1.36621 
 C                    -3.3034    2.12281   2.56563 
 H                    -2.37227  -1.66687   2.59122 
 H                    -3.26954   1.94559   0.4113 
 C                    -6.71058  -2.55411  -1.404 
 C                    -6.63643  -1.77593  -0.24699 
 C                    -5.39453  -1.2356    0.11579 
 C                    -4.26502  -1.46591  -0.66996 
 C                    -4.36979  -2.24426  -1.83194 
 C                    -5.59074  -2.80389  -2.2096 
 H                    -5.31255  -0.63427   1.02635 
 H                    -3.48255  -2.43347  -2.44812 
 Fe                    1.64873  -2.28144   0.23739 
 C                     2.67742  -4.04634   0.18359 
 C                     3.56135  -2.95464  -0.05393 
 C                     3.10471  -2.25926  -1.20762 
 C                     1.93887  -2.925    -1.68919 
 C                     1.67655  -4.02932  -0.83091 
 H                     2.73997  -4.75323   1.01127 
 H                     3.55552  -1.36376  -1.63374 
 H                     1.3494   -2.62862  -2.55641 
 H                     0.84505  -4.7294   -0.92021 
 H                    -3.18724   1.97435   4.71011 
 H                    -7.67511  -2.98731  -1.69072 
 C                    -2.55761  -0.64472   5.09429 
 H                    -3.52024  -1.01757   5.49011 
 H                    -1.88931  -1.51357   4.9779 
 H                    -2.12674   0.02094   5.86019 
 C                    -3.61237   3.5915    2.54772 
 H                    -4.43068   3.82224   1.84458 
 H                    -3.905     3.9572    3.54493 
 H                    -2.72531   4.16702   2.22412 
 C                    -7.85944  -1.50217   0.58052 
 H                    -7.60192  -1.33738   1.63954 
 H                    -8.37962  -0.59435   0.2229 
 H                    -8.57952  -2.33475   0.52545 
 C                    -5.71225  -3.65328  -3.44224 
 H                    -6.45081  -3.2309   -4.14605 
 H                    -4.74977  -3.74091  -3.97183 
 H                    -6.05269  -4.67305  -3.19025 
 H                     2.14939  -1.98849   2.99031 
 H                    -0.03875  -3.34712   2.20583 
 H                     4.41621  -2.67822   0.56366 
 C                     0.32087   2.27635   0.38759 
 C                     0.0396    2.08347   1.72975 
 C                     0.5674    3.605    -0.09957 
 C                     0.02001   3.15907   2.6415 
 H                    -0.17899   1.08188   2.10603 
 C                     0.55067   4.68949   0.83811 
 C                     0.82845   3.91936  -1.4602 
 C                     0.27655   4.43528   2.20621 
 H                    -0.20194   2.96068   3.69336 
 C                     0.80267   6.0109    0.38637 
 C                     1.06353   5.2128   -1.86956 
 H                     0.84894   3.12179  -2.20286 
 H                     0.271     5.27618   2.90624 
 C                     1.05564   6.27377  -0.93893 
 H                     0.79039   6.82259   1.11996 
 H                     1.26024   5.41665  -2.92596 
 H                     1.24946   7.29675  -1.27289 
 C                     1.63465   0.82556  -1.82638 
 C                     2.80709   1.41217  -1.3873 
 C                     1.58992   0.17882  -3.10203 
 C                     3.97332   1.39495  -2.17954 
 H                     2.83343   1.91473  -0.41607 
 C                     2.7786    0.16859  -3.90229 
 C                     0.43924  -0.47566  -3.61836 
 C                     3.95665   0.78808  -3.41367 
 H                     4.88477   1.87035  -1.80739 
 C                     2.76245  -0.47466  -5.16803 
 C                     0.45217  -1.08608  -4.85095 
 H                    -0.48565  -0.48442  -3.02002 
 H                     4.856     0.77199  -4.03641 
 C                     1.6262   -1.08845  -5.63814 
 H                     3.67919  -0.47416  -5.76504 
 H                    -0.45181  -1.5781   -5.22222 
 H                     1.62865  -1.58043  -6.61463 
 
 ITRead=  0  0  0  0  0  0  0  0  0  0  0  0  0  0  0  0  0  0  0  0
 ITRead=  0  0  0  0  0  0  0  0  0  0  0  0  0  0  0  0  0  0  0  0
 ITRead=  0  0  0  0  0  0  0  0  0  0  0  0  0  0  0  0  0  0  0  0
 ITRead=  0  0  0  0  0  0  0  0  0  0  0  0  0  0  0  0  0  0  0  0
 ITRead=  0  0  0  0  0  0  0  0  0  0  0  0  0  0  0
 MicOpt= -1 -1 -1 -1 -1 -1 -1 -1 -1 -1 -1 -1 -1 -1 -1 -1 -1 -1 -1 -1
 MicOpt= -1 -1 -1 -1 -1 -1 -1 -1 -1 -1 -1 -1 -1 -1 -1 -1 -1 -1 -1 -1
 MicOpt= -1 -1 -1 -1 -1 -1 -1 -1 -1 -1 -1 -1 -1 -1 -1 -1 -1 -1 -1 -1
 MicOpt= -1 -1 -1 -1 -1 -1 -1 -1 -1 -1 -1 -1 -1 -1 -1 -1 -1 -1 -1 -1
 MicOpt= -1 -1 -1 -1 -1 -1 -1 -1 -1 -1 -1 -1 -1 -1 -1
 NAtoms=     95 NQM=       95 NQMF=       0 NMMI=      0 NMMIF=      0
                NMic=       0 NMicF=      0.
                    Isotopes and Nuclear Properties:
 (Nuclear quadrupole moments (NQMom) in fm**2, nuclear magnetic moments (NMagM)
  in nuclear magnetons)

  Atom         1           2           3           4           5           6           7           8           9          10
 IAtWgt=          31          31          12          12          12          12          12          12          12           1
 AtmWgt=  30.9737634  30.9737634  12.0000000  12.0000000  12.0000000  12.0000000  12.0000000  12.0000000  12.0000000   1.0078250
 NucSpn=           1           1           0           0           0           0           0           0           0           1
 AtZEff=  -0.0000000  -0.0000000  -0.0000000  -0.0000000  -0.0000000  -0.0000000  -0.0000000  -0.0000000  -0.0000000  -0.0000000
 NQMom=    0.0000000   0.0000000   0.0000000   0.0000000   0.0000000   0.0000000   0.0000000   0.0000000   0.0000000   0.0000000
 NMagM=    1.1316000   1.1316000   0.0000000   0.0000000   0.0000000   0.0000000   0.0000000   0.0000000   0.0000000   2.7928460
 AtZNuc=  15.0000000  15.0000000   6.0000000   6.0000000   6.0000000   6.0000000   6.0000000   6.0000000   6.0000000   1.0000000

  Atom        11          12          13          14          15          16          17          18          19          20
 IAtWgt=           1           1           1           1          12          12          12          12          12          12
 AtmWgt=   1.0078250   1.0078250   1.0078250   1.0078250  12.0000000  12.0000000  12.0000000  12.0000000  12.0000000  12.0000000
 NucSpn=           1           1           1           1           0           0           0           0           0           0
 AtZEff=  -0.0000000  -0.0000000  -0.0000000  -0.0000000  -0.0000000  -0.0000000  -0.0000000  -0.0000000  -0.0000000  -0.0000000
 NQMom=    0.0000000   0.0000000   0.0000000   0.0000000   0.0000000   0.0000000   0.0000000   0.0000000   0.0000000   0.0000000
 NMagM=    2.7928460   2.7928460   2.7928460   2.7928460   0.0000000   0.0000000   0.0000000   0.0000000   0.0000000   0.0000000
 AtZNuc=   1.0000000   1.0000000   1.0000000   1.0000000   6.0000000   6.0000000   6.0000000   6.0000000   6.0000000   6.0000000

  Atom        21          22          23          24          25          26          27          28          29          30
 IAtWgt=           1           1          12          12          12          12          12          12           1           1
 AtmWgt=   1.0078250   1.0078250  12.0000000  12.0000000  12.0000000  12.0000000  12.0000000  12.0000000   1.0078250   1.0078250
 NucSpn=           1           1           0           0           0           0           0           0           1           1
 AtZEff=  -0.0000000  -0.0000000  -0.0000000  -0.0000000  -0.0000000  -0.0000000  -0.0000000  -0.0000000  -0.0000000  -0.0000000
 NQMom=    0.0000000   0.0000000   0.0000000   0.0000000   0.0000000   0.0000000   0.0000000   0.0000000   0.0000000   0.0000000
 NMagM=    2.7928460   2.7928460   0.0000000   0.0000000   0.0000000   0.0000000   0.0000000   0.0000000   2.7928460   2.7928460
 AtZNuc=   1.0000000   1.0000000   6.0000000   6.0000000   6.0000000   6.0000000   6.0000000   6.0000000   1.0000000   1.0000000

  Atom        31          32          33          34          35          36          37          38          39          40
 IAtWgt=          56          12          12          12          12          12           1           1           1           1
 AtmWgt=  55.9349393  12.0000000  12.0000000  12.0000000  12.0000000  12.0000000   1.0078250   1.0078250   1.0078250   1.0078250
 NucSpn=           0           0           0           0           0           0           1           1           1           1
 AtZEff=  -0.0000000  -0.0000000  -0.0000000  -0.0000000  -0.0000000  -0.0000000  -0.0000000  -0.0000000  -0.0000000  -0.0000000
 NQMom=    0.0000000   0.0000000   0.0000000   0.0000000   0.0000000   0.0000000   0.0000000   0.0000000   0.0000000   0.0000000
 NMagM=    0.0000000   0.0000000   0.0000000   0.0000000   0.0000000   0.0000000   2.7928460   2.7928460   2.7928460   2.7928460
 AtZNuc=  26.0000000   6.0000000   6.0000000   6.0000000   6.0000000   6.0000000   1.0000000   1.0000000   1.0000000   1.0000000

  Atom        41          42          43          44          45          46          47          48          49          50
 IAtWgt=           1           1          12           1           1           1          12           1           1           1
 AtmWgt=   1.0078250   1.0078250  12.0000000   1.0078250   1.0078250   1.0078250  12.0000000   1.0078250   1.0078250   1.0078250
 NucSpn=           1           1           0           1           1           1           0           1           1           1
 AtZEff=  -0.0000000  -0.0000000  -0.0000000  -0.0000000  -0.0000000  -0.0000000  -0.0000000  -0.0000000  -0.0000000  -0.0000000
 NQMom=    0.0000000   0.0000000   0.0000000   0.0000000   0.0000000   0.0000000   0.0000000   0.0000000   0.0000000   0.0000000
 NMagM=    2.7928460   2.7928460   0.0000000   2.7928460   2.7928460   2.7928460   0.0000000   2.7928460   2.7928460   2.7928460
 AtZNuc=   1.0000000   1.0000000   6.0000000   1.0000000   1.0000000   1.0000000   6.0000000   1.0000000   1.0000000   1.0000000

  Atom        51          52          53          54          55          56          57          58          59          60
 IAtWgt=          12           1           1           1          12           1           1           1           1           1
 AtmWgt=  12.0000000   1.0078250   1.0078250   1.0078250  12.0000000   1.0078250   1.0078250   1.0078250   1.0078250   1.0078250
 NucSpn=           0           1           1           1           0           1           1           1           1           1
 AtZEff=  -0.0000000  -0.0000000  -0.0000000  -0.0000000  -0.0000000  -0.0000000  -0.0000000  -0.0000000  -0.0000000  -0.0000000
 NQMom=    0.0000000   0.0000000   0.0000000   0.0000000   0.0000000   0.0000000   0.0000000   0.0000000   0.0000000   0.0000000
 NMagM=    0.0000000   2.7928460   2.7928460   2.7928460   0.0000000   2.7928460   2.7928460   2.7928460   2.7928460   2.7928460
 AtZNuc=   6.0000000   1.0000000   1.0000000   1.0000000   6.0000000   1.0000000   1.0000000   1.0000000   1.0000000   1.0000000

  Atom        61          62          63          64          65          66          67          68          69          70
 IAtWgt=           1          12          12          12          12           1          12          12          12           1
 AtmWgt=   1.0078250  12.0000000  12.0000000  12.0000000  12.0000000   1.0078250  12.0000000  12.0000000  12.0000000   1.0078250
 NucSpn=           1           0           0           0           0           1           0           0           0           1
 AtZEff=  -0.0000000  -0.0000000  -0.0000000  -0.0000000  -0.0000000  -0.0000000  -0.0000000  -0.0000000  -0.0000000  -0.0000000
 NQMom=    0.0000000   0.0000000   0.0000000   0.0000000   0.0000000   0.0000000   0.0000000   0.0000000   0.0000000   0.0000000
 NMagM=    2.7928460   0.0000000   0.0000000   0.0000000   0.0000000   2.7928460   0.0000000   0.0000000   0.0000000   2.7928460
 AtZNuc=   1.0000000   6.0000000   6.0000000   6.0000000   6.0000000   1.0000000   6.0000000   6.0000000   6.0000000   1.0000000

  Atom        71          72          73          74          75          76          77          78          79          80
 IAtWgt=          12          12           1           1          12           1           1           1          12          12
 AtmWgt=  12.0000000  12.0000000   1.0078250   1.0078250  12.0000000   1.0078250   1.0078250   1.0078250  12.0000000  12.0000000
 NucSpn=           0           0           1           1           0           1           1           1           0           0
 AtZEff=  -0.0000000  -0.0000000  -0.0000000  -0.0000000  -0.0000000  -0.0000000  -0.0000000  -0.0000000  -0.0000000  -0.0000000
 NQMom=    0.0000000   0.0000000   0.0000000   0.0000000   0.0000000   0.0000000   0.0000000   0.0000000   0.0000000   0.0000000
 NMagM=    0.0000000   0.0000000   2.7928460   2.7928460   0.0000000   2.7928460   2.7928460   2.7928460   0.0000000   0.0000000
 AtZNuc=   6.0000000   6.0000000   1.0000000   1.0000000   6.0000000   1.0000000   1.0000000   1.0000000   6.0000000   6.0000000

  Atom        81          82          83          84          85          86          87          88          89          90
 IAtWgt=          12          12           1          12          12          12           1          12          12           1
 AtmWgt=  12.0000000  12.0000000   1.0078250  12.0000000  12.0000000  12.0000000   1.0078250  12.0000000  12.0000000   1.0078250
 NucSpn=           0           0           1           0           0           0           1           0           0           1
 AtZEff=  -0.0000000  -0.0000000  -0.0000000  -0.0000000  -0.0000000  -0.0000000  -0.0000000  -0.0000000  -0.0000000  -0.0000000
 NQMom=    0.0000000   0.0000000   0.0000000   0.0000000   0.0000000   0.0000000   0.0000000   0.0000000   0.0000000   0.0000000
 NMagM=    0.0000000   0.0000000   2.7928460   0.0000000   0.0000000   0.0000000   2.7928460   0.0000000   0.0000000   2.7928460
 AtZNuc=   6.0000000   6.0000000   1.0000000   6.0000000   6.0000000   6.0000000   1.0000000   6.0000000   6.0000000   1.0000000

  Atom        91          92          93          94          95
 IAtWgt=           1          12           1           1           1
 AtmWgt=   1.0078250  12.0000000   1.0078250   1.0078250   1.0078250
 NucSpn=           1           0           1           1           1
 AtZEff=  -0.0000000  -0.0000000  -0.0000000  -0.0000000  -0.0000000
 NQMom=    0.0000000   0.0000000   0.0000000   0.0000000   0.0000000
 NMagM=    2.7928460   0.0000000   2.7928460   2.7928460   2.7928460
 AtZNuc=   1.0000000   6.0000000   1.0000000   1.0000000   1.0000000
 Leave Link  101 at Fri Sep 29 19:31:47 2023, MaxMem=  4026531840 cpu:               0.5 elap:               0.2
 (Enter /sw/arch/RHEL8/EB_production/2022/software/Gaussian/g16.c02/l202.exe)
 Symmetry turned off by external request.
 Stoichiometry    C48H44FeP2
 Framework group  C1[X(C48H44FeP2)]
 Deg. of freedom   279
 Full point group                 C1      NOp   1
                          Input orientation:                          
 ---------------------------------------------------------------------
 Center     Atomic      Atomic             Coordinates (Angstroms)
 Number     Number       Type             X           Y           Z
 ---------------------------------------------------------------------
      1         15           0        0.175910    0.816860   -0.718180
      2         15           0       -2.650100   -0.736670   -0.265410
      3          6           0       -1.487990   -2.186970   -0.096440
      4          6           0       -2.104510   -3.474110    0.439260
      5          6           0        0.537980   -0.569160    0.395660
      6          6           0       -0.267190   -1.738170    0.657210
      7          6           0        0.313110   -2.411150    1.774340
      8          6           0        1.471090   -1.695990    2.188940
      9          6           0        1.624770   -0.574590    1.335450
     10          1           0       -1.196380   -2.366680   -1.146920
     11          1           0       -1.352170   -4.280770    0.412970
     12          1           0       -2.960540   -3.788320   -0.176970
     13          1           0       -2.461680   -3.375780    1.476260
     14          1           0        2.417380    0.170600    1.390230
     15          6           0       -3.093290    1.432910    3.762320
     16          6           0       -2.757320    0.072940    3.790130
     17          6           0       -2.637880   -0.608670    2.575890
     18          6           0       -2.834540    0.058000    1.361580
     19          6           0       -3.161320    1.418270    1.366210
     20          6           0       -3.303400    2.122810    2.565630
     21          1           0       -2.372270   -1.666870    2.591220
     22          1           0       -3.269540    1.945590    0.411300
     23          6           0       -6.710580   -2.554110   -1.404000
     24          6           0       -6.636430   -1.775930   -0.246990
     25          6           0       -5.394530   -1.235600    0.115790
     26          6           0       -4.265020   -1.465910   -0.669960
     27          6           0       -4.369790   -2.244260   -1.831940
     28          6           0       -5.590740   -2.803890   -2.209600
     29          1           0       -5.312550   -0.634270    1.026350
     30          1           0       -3.482550   -2.433470   -2.448120
     31         26           0        1.648730   -2.281440    0.237390
     32          6           0        2.677420   -4.046340    0.183590
     33          6           0        3.561350   -2.954640   -0.053930
     34          6           0        3.104710   -2.259260   -1.207620
     35          6           0        1.938870   -2.925000   -1.689190
     36          6           0        1.676550   -4.029320   -0.830910
     37          1           0        2.739970   -4.753230    1.011270
     38          1           0        3.555520   -1.363760   -1.633740
     39          1           0        1.349400   -2.628620   -2.556410
     40          1           0        0.845050   -4.729400   -0.920210
     41          1           0       -3.187240    1.974350    4.710110
     42          1           0       -7.675110   -2.987310   -1.690720
     43          6           0       -2.557610   -0.644720    5.094290
     44          1           0       -3.520240   -1.017570    5.490110
     45          1           0       -1.889310   -1.513570    4.977900
     46          1           0       -2.126740    0.020940    5.860190
     47          6           0       -3.612370    3.591500    2.547720
     48          1           0       -4.430680    3.822240    1.844580
     49          1           0       -3.905000    3.957200    3.544930
     50          1           0       -2.725310    4.167020    2.224120
     51          6           0       -7.859440   -1.502170    0.580520
     52          1           0       -7.601920   -1.337380    1.639540
     53          1           0       -8.379620   -0.594350    0.222900
     54          1           0       -8.579520   -2.334750    0.525450
     55          6           0       -5.712250   -3.653280   -3.442240
     56          1           0       -6.450810   -3.230900   -4.146050
     57          1           0       -4.749770   -3.740910   -3.971830
     58          1           0       -6.052690   -4.673050   -3.190250
     59          1           0        2.149390   -1.988490    2.990310
     60          1           0       -0.038750   -3.347120    2.205830
     61          1           0        4.416210   -2.678220    0.563660
     62          6           0        0.320870    2.276350    0.387590
     63          6           0        0.039600    2.083470    1.729750
     64          6           0        0.567400    3.605000   -0.099570
     65          6           0        0.020010    3.159070    2.641500
     66          1           0       -0.178990    1.081880    2.106030
     67          6           0        0.550670    4.689490    0.838110
     68          6           0        0.828450    3.919360   -1.460200
     69          6           0        0.276550    4.435280    2.206210
     70          1           0       -0.201940    2.960680    3.693360
     71          6           0        0.802670    6.010900    0.386370
     72          6           0        1.063530    5.212800   -1.869560
     73          1           0        0.848940    3.121790   -2.202860
     74          1           0        0.271000    5.276180    2.906240
     75          6           0        1.055640    6.273770   -0.938930
     76          1           0        0.790390    6.822590    1.119960
     77          1           0        1.260240    5.416650   -2.925960
     78          1           0        1.249460    7.296750   -1.272890
     79          6           0        1.634650    0.825560   -1.826380
     80          6           0        2.807090    1.412170   -1.387300
     81          6           0        1.589920    0.178820   -3.102030
     82          6           0        3.973320    1.394950   -2.179540
     83          1           0        2.833430    1.914730   -0.416070
     84          6           0        2.778600    0.168590   -3.902290
     85          6           0        0.439240   -0.475660   -3.618360
     86          6           0        3.956650    0.788080   -3.413670
     87          1           0        4.884770    1.870350   -1.807390
     88          6           0        2.762450   -0.474660   -5.168030
     89          6           0        0.452170   -1.086080   -4.850950
     90          1           0       -0.485650   -0.484420   -3.020020
     91          1           0        4.856000    0.771990   -4.036410
     92          6           0        1.626200   -1.088450   -5.638140
     93          1           0        3.679190   -0.474160   -5.765040
     94          1           0       -0.451810   -1.578100   -5.222220
     95          1           0        1.628650   -1.580430   -6.614630
 ---------------------------------------------------------------------
 Rotational constants (GHZ):           0.0630902           0.0511412           0.0409118
 Leave Link  202 at Fri Sep 29 19:31:47 2023, MaxMem=  4026531840 cpu:               0.1 elap:               0.0
 (Enter /sw/arch/RHEL8/EB_production/2022/software/Gaussian/g16.c02/l301.exe)
 Standard basis: def2SVPP (5D, 7F)
 Ernie: Thresh=  0.10000D-02 Tol=  0.10000D-05 Strict=F.
   820 basis functions,  1521 primitive gaussians,   872 cartesian basis functions
   194 alpha electrons      194 beta electrons
       nuclear repulsion energy      8140.2720106365 Hartrees.
 IExCor= 1009 DFT=T Ex+Corr=PBE1PBE ExCW=0 ScaHFX=  0.250000
 ScaDFX=  0.750000  0.750000  1.000000  1.000000 ScalE2=  1.000000  1.000000
 IRadAn=      5 IRanWt=     -1 IRanGd=            0 ICorTp=0 IEmpDi=141
 NAtoms=   95 NActive=   95 NUniq=   95 SFac= 1.00D+00 NAtFMM=   60 NAOKFM=T Big=T
 Integral buffers will be    131072 words long.
 Raffenetti 2 integral format.
 Two-electron integral symmetry is turned off.
 R6Disp:  Grimme-D3(BJ) Dispersion energy=       -0.1582642421 Hartrees.
 Nuclear repulsion after empirical dispersion term =     8140.1137463944 Hartrees.
 Leave Link  301 at Fri Sep 29 19:31:47 2023, MaxMem=  4026531840 cpu:               0.1 elap:               0.0
 (Enter /sw/arch/RHEL8/EB_production/2022/software/Gaussian/g16.c02/l302.exe)
 NPDir=0 NMtPBC=     1 NCelOv=     1 NCel=       1 NClECP=     1 NCelD=      1
         NCelK=      1 NCelE2=     1 NClLst=     1 CellRange=     0.0.
 One-electron integrals computed using PRISM.
   1 Symmetry operations used in ECPInt.
 ECPInt:  NShTT=   81003 NPrTT=  334178 LenC2=   67946 LenP2D=  170696.
 LDataN:  DoStor=T MaxTD1= 4 Len=   56
 NBasis=   820 RedAO= T EigKep=  2.12D-04  NBF=   820
 NBsUse=   820 1.00D-06 EigRej= -1.00D+00 NBFU=   820
 Precomputing XC quadrature grid using
 IXCGrd= 4 IRadAn=           5 IRanWt=          -1 IRanGd=           0 AccXCQ= 0.00D+00.
 Generated NRdTot=       0 NPtTot=           0 NUsed=           0 NTot=          32
 NSgBfM=   843   837   839   840   843 MxSgAt=    95 MxSgA2=    95.
 Leave Link  302 at Fri Sep 29 19:31:48 2023, MaxMem=  4026531840 cpu:              17.5 elap:               1.2
 (Enter /sw/arch/RHEL8/EB_production/2022/software/Gaussian/g16.c02/l303.exe)
 DipDrv:  MaxL=1.
 Leave Link  303 at Fri Sep 29 19:31:48 2023, MaxMem=  4026531840 cpu:               0.5 elap:               0.1
 (Enter /sw/arch/RHEL8/EB_production/2022/software/Gaussian/g16.c02/l401.exe)
 ExpMin= 3.37D-02 ExpMax= 6.09D+04 ExpMxC= 9.15D+03 IAcc=3 IRadAn=         5 AccDes= 0.00D+00
 Harris functional with IExCor= 1009 and IRadAn=       5 diagonalized for initial guess.
 HarFok:  IExCor= 1009 AccDes= 0.00D+00 IRadAn=         5 IDoV= 1 UseB2=F ITyADJ=14
 ICtDFT=  3500011 ScaDFX=  1.000000  1.000000  1.000000  1.000000
 FoFCou: FMM=F IPFlag=           0 FMFlag=      100000 FMFlg1=        2001
         NFxFlg=           0 DoJE=T BraDBF=F KetDBF=T FulRan=T
         wScrn=  0.000000 ICntrl=       500 IOpCl=  0 I1Cent=   200000004 NGrid=           0
         NMat0=    1 NMatS0=      1 NMatT0=    0 NMatD0=    1 NMtDS0=    0 NMtDT0=    0
 Symmetry not used in FoFCou.
 Harris En= -3798.22741160154    
 JPrj=0 DoOrth=F DoCkMO=F.
 Leave Link  401 at Fri Sep 29 19:31:52 2023, MaxMem=  4026531840 cpu:              82.1 elap:               3.1
 (Enter /sw/arch/RHEL8/EB_production/2022/software/Gaussian/g16.c02/l502.exe)
 Two-electron integral symmetry not used.
 Closed shell SCF:
 Using DIIS extrapolation, IDIIS=  1040.
 NGot=  4026531840 LenX=  4024972372 LenY=  4024211116
 Requested convergence on RMS density matrix=1.00D-08 within  90 cycles.
 Requested convergence on MAX density matrix=1.00D-06.
 Requested convergence on             energy=1.00D-06.
 No special actions if energy rises.
 Fock matrices will be formed incrementally for  20 cycles.

 Cycle   1  Pass 1  IDiag  1:
 FoFJK:  IHMeth= 1 ICntrl=       0 DoSepK=F KAlg= 0 I1Cent=           0 FoldK=F
 IRaf= 990000000 NMat=       1 IRICut=       1 DoRegI=T DoRafI=F ISym2E= 0 IDoP0=0 IntGTp=1.
 FoFCou: FMM=T IPFlag=           0 FMFlag=      100000 FMFlg1=        2001
         NFxFlg=           0 DoJE=F BraDBF=F KetDBF=F FulRan=T
         wScrn=  0.000000 ICntrl=         0 IOpCl=  0 I1Cent=           0 NGrid=           0
         NMat0=    1 NMatS0=      1 NMatT0=    0 NMatD0=    1 NMtDS0=    0 NMtDT0=    0
 Symmetry not used in FoFCou.
 FMM levels:  10  Number of levels for PrismC:   9
 E= -3796.67262917594    
 DIIS: error= 2.39D-02 at cycle   1 NSaved=   1.
 NSaved= 1 IEnMin= 1 EnMin= -3796.67262917594     IErMin= 1 ErrMin= 2.39D-02
 ErrMax= 2.39D-02  0.00D+00 EMaxC= 1.00D-01 BMatC= 9.93D-01 BMatP= 9.93D-01
 IDIUse=3 WtCom= 7.61D-01 WtEn= 2.39D-01
 Coeff-Com:  0.100D+01
 Coeff-En:   0.100D+01
 Coeff:      0.100D+01
 Gap=     0.218 Goal=   None    Shift=    0.000
 GapD=    0.218 DampG=1.000 DampE=0.250 DampFc=0.2500 IDamp=-1.
 Damping current iteration by 2.50D-01
 RMSDP=3.99D-03 MaxDP=2.01D-01              OVMax= 1.85D-01

 Cycle   2  Pass 1  IDiag  1:
 RMSU=  9.24D-04    CP:  9.75D-01
 E= -3797.04958788762     Delta-E=       -0.376958711680 Rises=F Damp=T
 DIIS: error= 1.25D-02 at cycle   2 NSaved=   2.
 NSaved= 2 IEnMin= 2 EnMin= -3797.04958788762     IErMin= 2 ErrMin= 1.25D-02
 ErrMax= 1.25D-02  0.00D+00 EMaxC= 1.00D-01 BMatC= 2.71D-01 BMatP= 9.93D-01
 IDIUse=3 WtCom= 8.75D-01 WtEn= 1.25D-01
 Coeff-Com: -0.597D+00 0.160D+01
 Coeff-En:   0.000D+00 0.100D+01
 Coeff:     -0.522D+00 0.152D+01
 Gap=     0.229 Goal=   None    Shift=    0.000
 RMSDP=3.84D-03 MaxDP=4.94D-01 DE=-3.77D-01 OVMax= 5.04D-01

 Cycle   3  Pass 1  IDiag  1:
 RMSU=  3.75D-03    CP:  9.53D-01  1.81D+00
 E= -3795.66123853514     Delta-E=        1.388349352481 Rises=F Damp=F
 DIIS: error= 1.11D-01 at cycle   3 NSaved=   3.
 NSaved= 3 IEnMin= 2 EnMin= -3797.04958788762     IErMin= 2 ErrMin= 1.25D-02
 ErrMax= 1.11D-01  0.00D+00 EMaxC= 1.00D-01 BMatC= 3.26D+00 BMatP= 2.71D-01
 IDIUse=2 WtCom= 0.00D+00 WtEn= 1.00D+00
 Coeff-En:   0.000D+00 0.805D+00 0.195D+00
 Coeff:      0.000D+00 0.805D+00 0.195D+00
 Gap=     0.320 Goal=   None    Shift=    0.000
 RMSDP=4.81D-03 MaxDP=5.43D-01 DE= 1.39D+00 OVMax= 2.70D-01

 Cycle   4  Pass 1  IDiag  1:
 RMSU=  1.42D-03    CP:  9.05D-01  2.86D+00 -1.83D-01
 E= -3796.07184027774     Delta-E=       -0.410601742598 Rises=F Damp=F
 DIIS: error= 7.77D-02 at cycle   4 NSaved=   4.
 NSaved= 4 IEnMin= 2 EnMin= -3797.04958788762     IErMin= 2 ErrMin= 1.25D-02
 ErrMax= 7.77D-02  0.00D+00 EMaxC= 1.00D-01 BMatC= 2.82D+00 BMatP= 2.71D-01
 IDIUse=2 WtCom= 0.00D+00 WtEn= 1.00D+00
 EnCoef did     2 forward-backward iterations
 Coeff-En:   0.359D-01 0.000D+00 0.449D+00 0.516D+00
 Coeff:      0.359D-01 0.000D+00 0.449D+00 0.516D+00
 Gap=     0.119 Goal=   None    Shift=    0.000
 RMSDP=2.11D-03 MaxDP=2.20D-01 DE=-4.11D-01 OVMax= 2.69D-01

 Cycle   5  Pass 1  IDiag  1:
 RMSU=  9.05D-04    CP:  9.42D-01  1.68D+00  1.65D-01  5.33D-01
 E= -3797.70188814770     Delta-E=       -1.630047869961 Rises=F Damp=F
 DIIS: error= 6.84D-03 at cycle   5 NSaved=   5.
 NSaved= 5 IEnMin= 5 EnMin= -3797.70188814770     IErMin= 5 ErrMin= 6.84D-03
 ErrMax= 6.84D-03  0.00D+00 EMaxC= 1.00D-01 BMatC= 6.49D-02 BMatP= 2.71D-01
 IDIUse=3 WtCom= 9.32D-01 WtEn= 6.84D-02
 Coeff-Com: -0.629D+00 0.855D+00 0.586D-01-0.732D-01 0.788D+00
 Coeff-En:   0.000D+00 0.000D+00 0.000D+00 0.000D+00 0.100D+01
 Coeff:     -0.586D+00 0.797D+00 0.546D-01-0.682D-01 0.803D+00
 Gap=     0.124 Goal=   None    Shift=    0.000
 RMSDP=6.10D-04 MaxDP=6.04D-02 DE=-1.63D+00 OVMax= 3.94D-02

 Cycle   6  Pass 1  IDiag  1:
 RMSU=  3.53D-04    CP:  9.34D-01  2.12D+00  1.92D-01  3.77D-01  9.15D-01
 E= -3797.76273569198     Delta-E=       -0.060847544280 Rises=F Damp=F
 DIIS: error= 2.95D-03 at cycle   6 NSaved=   6.
 NSaved= 6 IEnMin= 6 EnMin= -3797.76273569198     IErMin= 6 ErrMin= 2.95D-03
 ErrMax= 2.95D-03  0.00D+00 EMaxC= 1.00D-01 BMatC= 1.07D-02 BMatP= 6.49D-02
 IDIUse=3 WtCom= 9.71D-01 WtEn= 2.95D-02
 Coeff-Com: -0.410D+00 0.552D+00 0.323D-01-0.625D-01 0.515D+00 0.373D+00
 Coeff-En:   0.000D+00 0.000D+00 0.000D+00 0.000D+00 0.000D+00 0.100D+01
 Coeff:     -0.398D+00 0.536D+00 0.314D-01-0.607D-01 0.500D+00 0.392D+00
 Gap=     0.130 Goal=   None    Shift=    0.000
 RMSDP=2.39D-04 MaxDP=1.90D-02 DE=-6.08D-02 OVMax= 3.41D-02

 Cycle   7  Pass 1  IDiag  1:
 RMSU=  1.20D-04    CP:  9.35D-01  2.12D+00  1.83D-01  3.55D-01  9.62D-01
                    CP:  4.44D-01
 E= -3797.77272938568     Delta-E=       -0.009993693699 Rises=F Damp=F
 DIIS: error= 1.39D-03 at cycle   7 NSaved=   7.
 NSaved= 7 IEnMin= 7 EnMin= -3797.77272938568     IErMin= 7 ErrMin= 1.39D-03
 ErrMax= 1.39D-03  0.00D+00 EMaxC= 1.00D-01 BMatC= 1.37D-03 BMatP= 1.07D-02
 IDIUse=3 WtCom= 9.86D-01 WtEn= 1.39D-02
 Coeff-Com: -0.899D-01 0.115D+00 0.990D-02-0.250D-01 0.119D+00 0.214D+00
 Coeff-Com:  0.658D+00
 Coeff-En:   0.000D+00 0.000D+00 0.000D+00 0.000D+00 0.000D+00 0.281D-01
 Coeff-En:   0.972D+00
 Coeff:     -0.887D-01 0.113D+00 0.976D-02-0.246D-01 0.117D+00 0.211D+00
 Coeff:      0.662D+00
 Gap=     0.129 Goal=   None    Shift=    0.000
 RMSDP=6.89D-05 MaxDP=5.27D-03 DE=-9.99D-03 OVMax= 1.02D-02

 Cycle   8  Pass 1  IDiag  1:
 RMSU=  4.73D-05    CP:  9.35D-01  2.12D+00  1.83D-01  3.59D-01  9.65D-01
                    CP:  5.43D-01  7.06D-01
 E= -3797.77361706393     Delta-E=       -0.000887678249 Rises=F Damp=F
 DIIS: error= 7.81D-04 at cycle   8 NSaved=   8.
 NSaved= 8 IEnMin= 8 EnMin= -3797.77361706393     IErMin= 8 ErrMin= 7.81D-04
 ErrMax= 7.81D-04  0.00D+00 EMaxC= 1.00D-01 BMatC= 3.45D-04 BMatP= 1.37D-03
 IDIUse=3 WtCom= 9.92D-01 WtEn= 7.81D-03
 Coeff-Com:  0.223D-01-0.347D-01 0.198D-02-0.673D-02-0.250D-01 0.587D-01
 Coeff-Com:  0.418D+00 0.566D+00
 Coeff-En:   0.000D+00 0.000D+00 0.000D+00 0.000D+00 0.000D+00 0.000D+00
 Coeff-En:   0.000D+00 0.100D+01
 Coeff:      0.221D-01-0.344D-01 0.197D-02-0.668D-02-0.249D-01 0.583D-01
 Coeff:      0.415D+00 0.569D+00
 Gap=     0.129 Goal=   None    Shift=    0.000
 RMSDP=3.07D-05 MaxDP=2.19D-03 DE=-8.88D-04 OVMax= 3.44D-03

 Cycle   9  Pass 1  IDiag  1:
 RMSU=  2.07D-05    CP:  9.35D-01  2.11D+00  1.84D-01  3.58D-01  9.72D-01
                    CP:  5.44D-01  7.94D-01  6.20D-01
 E= -3797.77387553301     Delta-E=       -0.000258469083 Rises=F Damp=F
 DIIS: error= 2.56D-04 at cycle   9 NSaved=   9.
 NSaved= 9 IEnMin= 9 EnMin= -3797.77387553301     IErMin= 9 ErrMin= 2.56D-04
 ErrMax= 2.56D-04  0.00D+00 EMaxC= 1.00D-01 BMatC= 3.82D-05 BMatP= 3.45D-04
 IDIUse=3 WtCom= 9.97D-01 WtEn= 2.56D-03
 Coeff-Com:  0.227D-01-0.319D-01 0.500D-03-0.175D-02-0.292D-01 0.397D-02
 Coeff-Com:  0.144D+00 0.315D+00 0.577D+00
 Coeff-En:   0.000D+00 0.000D+00 0.000D+00 0.000D+00 0.000D+00 0.000D+00
 Coeff-En:   0.000D+00 0.000D+00 0.100D+01
 Coeff:      0.227D-01-0.319D-01 0.499D-03-0.175D-02-0.291D-01 0.396D-02
 Coeff:      0.143D+00 0.315D+00 0.578D+00
 Gap=     0.129 Goal=   None    Shift=    0.000
 RMSDP=1.15D-05 MaxDP=7.96D-04 DE=-2.58D-04 OVMax= 1.44D-03

 Cycle  10  Pass 1  IDiag  1:
 RMSU=  8.92D-06    CP:  9.35D-01  2.11D+00  1.84D-01  3.57D-01  9.74D-01
                    CP:  5.46D-01  7.98D-01  7.12D-01  7.44D-01
 E= -3797.77390499720     Delta-E=       -0.000029464187 Rises=F Damp=F
 DIIS: error= 5.31D-05 at cycle  10 NSaved=  10.
 NSaved=10 IEnMin=10 EnMin= -3797.77390499720     IErMin=10 ErrMin= 5.31D-05
 ErrMax= 5.31D-05  0.00D+00 EMaxC= 1.00D-01 BMatC= 4.09D-06 BMatP= 3.82D-05
 IDIUse=1 WtCom= 1.00D+00 WtEn= 0.00D+00
 Coeff-Com:  0.912D-02-0.120D-01 0.223D-04-0.665D-04-0.128D-01-0.890D-02
 Coeff-Com:  0.615D-02 0.782D-01 0.360D+00 0.580D+00
 Coeff:      0.912D-02-0.120D-01 0.223D-04-0.665D-04-0.128D-01-0.890D-02
 Coeff:      0.615D-02 0.782D-01 0.360D+00 0.580D+00
 Gap=     0.129 Goal=   None    Shift=    0.000
 RMSDP=4.52D-06 MaxDP=2.74D-04 DE=-2.95D-05 OVMax= 5.04D-04

 Cycle  11  Pass 1  IDiag  1:
 RMSU=  2.41D-06    CP:  9.35D-01  2.11D+00  1.84D-01  3.57D-01  9.74D-01
                    CP:  5.47D-01  8.02D-01  7.09D-01  8.55D-01  6.80D-01
 E= -3797.77390903632     Delta-E=       -0.000004039122 Rises=F Damp=F
 DIIS: error= 2.43D-05 at cycle  11 NSaved=  11.
 NSaved=11 IEnMin=11 EnMin= -3797.77390903632     IErMin=11 ErrMin= 2.43D-05
 ErrMax= 2.43D-05  0.00D+00 EMaxC= 1.00D-01 BMatC= 3.82D-07 BMatP= 4.09D-06
 IDIUse=1 WtCom= 1.00D+00 WtEn= 0.00D+00
 Coeff-Com:  0.278D-02-0.353D-02-0.606D-04 0.896D-04-0.397D-02-0.439D-02
 Coeff-Com: -0.717D-02 0.160D-01 0.149D+00 0.318D+00 0.533D+00
 Coeff:      0.278D-02-0.353D-02-0.606D-04 0.896D-04-0.397D-02-0.439D-02
 Coeff:     -0.717D-02 0.160D-01 0.149D+00 0.318D+00 0.533D+00
 Gap=     0.129 Goal=   None    Shift=    0.000
 RMSDP=1.27D-06 MaxDP=8.08D-05 DE=-4.04D-06 OVMax= 1.35D-04

 Cycle  12  Pass 1  IDiag  1:
 RMSU=  9.24D-07    CP:  9.35D-01  2.11D+00  1.84D-01  3.57D-01  9.74D-01
                    CP:  5.47D-01  8.02D-01  7.14D-01  8.52D-01  7.22D-01
                    CP:  7.07D-01
 E= -3797.77390934818     Delta-E=       -0.000000311860 Rises=F Damp=F
 DIIS: error= 1.32D-05 at cycle  12 NSaved=  12.
 NSaved=12 IEnMin=12 EnMin= -3797.77390934818     IErMin=12 ErrMin= 1.32D-05
 ErrMax= 1.32D-05  0.00D+00 EMaxC= 1.00D-01 BMatC= 9.01D-08 BMatP= 3.82D-07
 IDIUse=1 WtCom= 1.00D+00 WtEn= 0.00D+00
 Coeff-Com:  0.572D-03-0.672D-03-0.536D-04 0.587D-04-0.827D-03-0.135D-02
 Coeff-Com: -0.409D-02 0.191D-02 0.525D-01 0.132D+00 0.307D+00 0.513D+00
 Coeff:      0.572D-03-0.672D-03-0.536D-04 0.587D-04-0.827D-03-0.135D-02
 Coeff:     -0.409D-02 0.191D-02 0.525D-01 0.132D+00 0.307D+00 0.513D+00
 Gap=     0.129 Goal=   None    Shift=    0.000
 RMSDP=5.53D-07 MaxDP=3.61D-05 DE=-3.12D-07 OVMax= 7.14D-05

 Cycle  13  Pass 1  IDiag  1:
 RMSU=  4.11D-07    CP:  9.35D-01  2.11D+00  1.84D-01  3.57D-01  9.74D-01
                    CP:  5.47D-01  8.01D-01  7.14D-01  8.57D-01  7.28D-01
                    CP:  7.86D-01  9.00D-01
 E= -3797.77390941962     Delta-E=       -0.000000071439 Rises=F Damp=F
 DIIS: error= 6.08D-06 at cycle  13 NSaved=  13.
 NSaved=13 IEnMin=13 EnMin= -3797.77390941962     IErMin=13 ErrMin= 6.08D-06
 ErrMax= 6.08D-06  0.00D+00 EMaxC= 1.00D-01 BMatC= 1.80D-08 BMatP= 9.01D-08
 IDIUse=1 WtCom= 1.00D+00 WtEn= 0.00D+00
 Coeff-Com: -0.223D-03 0.306D-03-0.284D-04 0.196D-04 0.334D-03 0.244D-03
 Coeff-Com: -0.247D-03-0.117D-02 0.127D-02 0.101D-01 0.457D-01 0.238D+00
 Coeff-Com:  0.706D+00
 Coeff:     -0.223D-03 0.306D-03-0.284D-04 0.196D-04 0.334D-03 0.244D-03
 Coeff:     -0.247D-03-0.117D-02 0.127D-02 0.101D-01 0.457D-01 0.238D+00
 Coeff:      0.706D+00
 Gap=     0.129 Goal=   None    Shift=    0.000
 RMSDP=4.19D-07 MaxDP=3.20D-05 DE=-7.14D-08 OVMax= 7.22D-05

 Cycle  14  Pass 1  IDiag  1:
 RMSU=  1.99D-07    CP:  9.35D-01  2.11D+00  1.84D-01  3.57D-01  9.74D-01
                    CP:  5.47D-01  8.01D-01  7.14D-01  8.60D-01  7.36D-01
                    CP:  8.41D-01  1.10D+00  1.18D+00
 E= -3797.77390944118     Delta-E=       -0.000000021562 Rises=F Damp=F
 DIIS: error= 2.78D-06 at cycle  14 NSaved=  14.
 NSaved=14 IEnMin=14 EnMin= -3797.77390944118     IErMin=14 ErrMin= 2.78D-06
 ErrMax= 2.78D-06  0.00D+00 EMaxC= 1.00D-01 BMatC= 2.60D-09 BMatP= 1.80D-08
 IDIUse=1 WtCom= 1.00D+00 WtEn= 0.00D+00
 Coeff-Com: -0.226D-03 0.278D-03-0.498D-05-0.173D-05 0.329D-03 0.472D-03
 Coeff-Com:  0.115D-02-0.675D-03-0.135D-01-0.331D-01-0.785D-01-0.641D-01
 Coeff-Com:  0.324D+00 0.864D+00
 Coeff:     -0.226D-03 0.278D-03-0.498D-05-0.173D-05 0.329D-03 0.472D-03
 Coeff:      0.115D-02-0.675D-03-0.135D-01-0.331D-01-0.785D-01-0.641D-01
 Coeff:      0.324D+00 0.864D+00
 Gap=     0.129 Goal=   None    Shift=    0.000
 RMSDP=3.30D-07 MaxDP=3.25D-05 DE=-2.16D-08 OVMax= 7.27D-05

 Cycle  15  Pass 1  IDiag  1:
 RMSU=  1.08D-07    CP:  9.35D-01  2.11D+00  1.84D-01  3.57D-01  9.74D-01
                    CP:  5.47D-01  8.01D-01  7.15D-01  8.62D-01  7.44D-01
                    CP:  8.86D-01  1.28D+00  1.59D+00  1.34D+00
 E= -3797.77390944980     Delta-E=       -0.000000008618 Rises=F Damp=F
 DIIS: error= 1.49D-06 at cycle  15 NSaved=  15.
 NSaved=15 IEnMin=15 EnMin= -3797.77390944980     IErMin=15 ErrMin= 1.49D-06
 ErrMax= 1.49D-06  0.00D+00 EMaxC= 1.00D-01 BMatC= 5.24D-10 BMatP= 2.60D-09
 IDIUse=1 WtCom= 1.00D+00 WtEn= 0.00D+00
 Coeff-Com: -0.593D-04 0.647D-04 0.737D-05-0.811D-05 0.691D-04 0.163D-03
 Coeff-Com:  0.588D-03-0.199D-03-0.875D-02-0.235D-01-0.652D-01-0.130D+00
 Coeff-Com: -0.768D-01 0.500D+00 0.803D+00
 Coeff:     -0.593D-04 0.647D-04 0.737D-05-0.811D-05 0.691D-04 0.163D-03
 Coeff:      0.588D-03-0.199D-03-0.875D-02-0.235D-01-0.652D-01-0.130D+00
 Coeff:     -0.768D-01 0.500D+00 0.803D+00
 Gap=     0.129 Goal=   None    Shift=    0.000
 RMSDP=2.22D-07 MaxDP=2.38D-05 DE=-8.62D-09 OVMax= 5.42D-05

 Cycle  16  Pass 1  IDiag  1:
 RMSU=  6.31D-08    CP:  9.35D-01  2.11D+00  1.84D-01  3.57D-01  9.74D-01
                    CP:  5.47D-01  8.01D-01  7.15D-01  8.63D-01  7.46D-01
                    CP:  9.16D-01  1.41D+00  1.87D+00  1.81D+00  1.15D+00
 E= -3797.77390945279     Delta-E=       -0.000000002990 Rises=F Damp=F
 DIIS: error= 1.07D-06 at cycle  16 NSaved=  16.
 NSaved=16 IEnMin=16 EnMin= -3797.77390945279     IErMin=16 ErrMin= 1.07D-06
 ErrMax= 1.07D-06  0.00D+00 EMaxC= 1.00D-01 BMatC= 4.15D-10 BMatP= 5.24D-10
 IDIUse=1 WtCom= 1.00D+00 WtEn= 0.00D+00
 Coeff-Com: -0.238D-05-0.313D-06 0.686D-05-0.538D-05-0.821D-05 0.563D-05
 Coeff-Com:  0.509D-04-0.165D-03-0.277D-02-0.707D-02-0.195D-01-0.513D-01
 Coeff-Com: -0.874D-01 0.895D-01 0.415D+00 0.663D+00
 Coeff:     -0.238D-05-0.313D-06 0.686D-05-0.538D-05-0.821D-05 0.563D-05
 Coeff:      0.509D-04-0.165D-03-0.277D-02-0.707D-02-0.195D-01-0.513D-01
 Coeff:     -0.874D-01 0.895D-01 0.415D+00 0.663D+00
 Gap=     0.129 Goal=   None    Shift=    0.000
 RMSDP=7.40D-08 MaxDP=7.04D-06 DE=-2.99D-09 OVMax= 1.72D-05

 Cycle  17  Pass 1  IDiag  1:
 RMSU=  2.83D-08    CP:  9.35D-01  2.11D+00  1.84D-01  3.57D-01  9.74D-01
                    CP:  5.47D-01  8.01D-01  7.15D-01  8.64D-01  7.47D-01
                    CP:  9.23D-01  1.45D+00  1.97D+00  1.92D+00  1.38D+00
                    CP:  1.04D+00
 E= -3797.77390945324     Delta-E=       -0.000000000449 Rises=F Damp=F
 DIIS: error= 6.97D-07 at cycle  17 NSaved=  17.
 NSaved=17 IEnMin=17 EnMin= -3797.77390945324     IErMin=17 ErrMin= 6.97D-07
 ErrMax= 6.97D-07  0.00D+00 EMaxC= 1.00D-01 BMatC= 1.41D-10 BMatP= 4.15D-10
 IDIUse=1 WtCom= 1.00D+00 WtEn= 0.00D+00
 Coeff-Com:  0.828D-05-0.108D-04 0.359D-05-0.189D-05-0.106D-04-0.264D-04
 Coeff-Com: -0.994D-04-0.111D-03 0.187D-03 0.127D-02 0.576D-02 0.889D-02
 Coeff-Com: -0.201D-01-0.889D-01-0.102D-02 0.352D+00 0.742D+00
 Coeff:      0.828D-05-0.108D-04 0.359D-05-0.189D-05-0.106D-04-0.264D-04
 Coeff:     -0.994D-04-0.111D-03 0.187D-03 0.127D-02 0.576D-02 0.889D-02
 Coeff:     -0.201D-01-0.889D-01-0.102D-02 0.352D+00 0.742D+00
 Gap=     0.129 Goal=   None    Shift=    0.000
 RMSDP=4.09D-08 MaxDP=3.53D-06 DE=-4.49D-10 OVMax= 9.06D-06

 Cycle  18  Pass 1  IDiag  1:
 RMSU=  1.40D-08    CP:  9.35D-01  2.11D+00  1.84D-01  3.57D-01  9.74D-01
                    CP:  5.47D-01  8.01D-01  7.15D-01  8.64D-01  7.48D-01
                    CP:  9.27D-01  1.47D+00  2.01D+00  2.01D+00  1.48D+00
                    CP:  1.23D+00  8.90D-01
 E= -3797.77390945346     Delta-E=       -0.000000000220 Rises=F Damp=F
 DIIS: error= 2.40D-07 at cycle  18 NSaved=  18.
 NSaved=18 IEnMin=18 EnMin= -3797.77390945346     IErMin=18 ErrMin= 2.40D-07
 ErrMax= 2.40D-07  0.00D+00 EMaxC= 1.00D-01 BMatC= 1.96D-11 BMatP= 1.41D-10
 IDIUse=1 WtCom= 1.00D+00 WtEn= 0.00D+00
 Coeff-Com:  0.124D-05-0.120D-05 0.100D-05-0.254D-06 0.254D-05-0.696D-05
 Coeff-Com: -0.396D-04-0.431D-04 0.376D-03 0.152D-02 0.622D-02 0.155D-01
 Coeff-Com:  0.105D-01-0.607D-01-0.926D-01 0.142D-01 0.375D+00 0.731D+00
 Coeff:      0.124D-05-0.120D-05 0.100D-05-0.254D-06 0.254D-05-0.696D-05
 Coeff:     -0.396D-04-0.431D-04 0.376D-03 0.152D-02 0.622D-02 0.155D-01
 Coeff:      0.105D-01-0.607D-01-0.926D-01 0.142D-01 0.375D+00 0.731D+00
 Gap=     0.129 Goal=   None    Shift=    0.000
 RMSDP=1.93D-08 MaxDP=1.50D-06 DE=-2.20D-10 OVMax= 3.72D-06

 Cycle  19  Pass 1  IDiag  1:
 RMSU=  6.09D-09    CP:  9.35D-01  2.11D+00  1.84D-01  3.57D-01  9.74D-01
                    CP:  5.47D-01  8.01D-01  7.15D-01  8.63D-01  7.48D-01
                    CP:  9.28D-01  1.48D+00  2.02D+00  2.03D+00  1.53D+00
                    CP:  1.33D+00  1.05D+00  9.06D-01
 E= -3797.77390945332     Delta-E=        0.000000000136 Rises=F Damp=F
 DIIS: error= 5.24D-08 at cycle  19 NSaved=  19.
 NSaved=19 IEnMin=18 EnMin= -3797.77390945346     IErMin=19 ErrMin= 5.24D-08
 ErrMax= 5.24D-08  0.00D+00 EMaxC= 1.00D-01 BMatC= 2.18D-12 BMatP= 1.96D-11
 IDIUse=1 WtCom= 1.00D+00 WtEn= 0.00D+00
 Coeff-Com: -0.141D-05 0.202D-05 0.179D-06 0.556D-08 0.456D-05 0.293D-05
 Coeff-Com:  0.176D-05-0.104D-04 0.939D-04 0.472D-03 0.232D-02 0.710D-02
 Coeff-Com:  0.895D-02-0.193D-01-0.504D-01-0.495D-01 0.935D-01 0.430D+00
 Coeff-Com:  0.577D+00
 Coeff:     -0.141D-05 0.202D-05 0.179D-06 0.556D-08 0.456D-05 0.293D-05
 Coeff:      0.176D-05-0.104D-04 0.939D-04 0.472D-03 0.232D-02 0.710D-02
 Coeff:      0.895D-02-0.193D-01-0.504D-01-0.495D-01 0.935D-01 0.430D+00
 Coeff:      0.577D+00
 Gap=     0.129 Goal=   None    Shift=    0.000
 RMSDP=5.33D-09 MaxDP=3.88D-07 DE= 1.36D-10 OVMax= 8.87D-07

 SCF Done:  E(RPBE1PBE) =  -3797.77390945     A.U. after   19 cycles
            NFock= 19  Conv=0.53D-08     -V/T= 2.0061
 KE= 3.774725706055D+03 PE=-2.519802524909D+04 EE= 9.485411887191D+03
 Leave Link  502 at Fri Sep 29 19:35:15 2023, MaxMem=  4026531840 cpu:            5971.5 elap:             203.7
 (Enter /sw/arch/RHEL8/EB_production/2022/software/Gaussian/g16.c02/l508.exe)
 QCSCF skips out because SCF is already converged.
 Leave Link  508 at Fri Sep 29 19:35:15 2023, MaxMem=  4026531840 cpu:               0.5 elap:               0.0
 (Enter /sw/arch/RHEL8/EB_production/2022/software/Gaussian/g16.c02/l601.exe)
 Copying SCF densities to generalized density rwf, IOpCl= 0 IROHF=0.

 **********************************************************************

            Population analysis using the SCF Density.

 **********************************************************************

 Alpha  occ. eigenvalues -- -256.34755 -77.19267 -77.18030 -30.12228 -25.97077
 Alpha  occ. eigenvalues --  -25.95205 -25.95151 -10.25519 -10.25251 -10.24980
 Alpha  occ. eigenvalues --  -10.24870 -10.24606 -10.24585 -10.24449 -10.24427
 Alpha  occ. eigenvalues --  -10.24272 -10.24196 -10.24152 -10.24093 -10.24059
 Alpha  occ. eigenvalues --  -10.24018 -10.24014 -10.23958 -10.23942 -10.23924
 Alpha  occ. eigenvalues --  -10.23900 -10.23857 -10.23835 -10.23830 -10.23772
 Alpha  occ. eigenvalues --  -10.23718 -10.23714 -10.23688 -10.23661 -10.23457
 Alpha  occ. eigenvalues --  -10.23322 -10.23242 -10.23239 -10.23173 -10.23169
 Alpha  occ. eigenvalues --  -10.23151 -10.23096 -10.22987 -10.22940 -10.22936
 Alpha  occ. eigenvalues --  -10.22932 -10.22769 -10.22637 -10.22623 -10.22357
 Alpha  occ. eigenvalues --  -10.22106 -10.22091 -10.22070 -10.22030 -10.21935
 Alpha  occ. eigenvalues --   -6.60152  -6.59062  -4.74220  -4.74196  -4.73687
 Alpha  occ. eigenvalues --   -4.73124  -4.73102  -4.72565  -3.45416  -2.24402
 Alpha  occ. eigenvalues --   -2.19680  -2.19588  -0.91922  -0.89933  -0.89843
 Alpha  occ. eigenvalues --   -0.89020  -0.87853  -0.87229  -0.84444  -0.83663
 Alpha  occ. eigenvalues --   -0.81467  -0.80167  -0.79717  -0.79379  -0.78627
 Alpha  occ. eigenvalues --   -0.77951  -0.76793  -0.76052  -0.75399  -0.75024
 Alpha  occ. eigenvalues --   -0.73404  -0.72560  -0.72461  -0.72302  -0.71698
 Alpha  occ. eigenvalues --   -0.70461  -0.69997  -0.69053  -0.68840  -0.66638
 Alpha  occ. eigenvalues --   -0.65919  -0.63983  -0.63204  -0.63015  -0.62439
 Alpha  occ. eigenvalues --   -0.62325  -0.60339  -0.60100  -0.58346  -0.58155
 Alpha  occ. eigenvalues --   -0.57952  -0.56265  -0.55318  -0.55059  -0.54689
 Alpha  occ. eigenvalues --   -0.54307  -0.53108  -0.52460  -0.52425  -0.52123
 Alpha  occ. eigenvalues --   -0.51704  -0.51361  -0.50760  -0.50689  -0.49823
 Alpha  occ. eigenvalues --   -0.49050  -0.48950  -0.48466  -0.46339  -0.46100
 Alpha  occ. eigenvalues --   -0.45360  -0.44834  -0.44290  -0.44057  -0.43949
 Alpha  occ. eigenvalues --   -0.43840  -0.43636  -0.43370  -0.43005  -0.42915
 Alpha  occ. eigenvalues --   -0.42762  -0.42514  -0.42346  -0.42268  -0.42207
 Alpha  occ. eigenvalues --   -0.41715  -0.41655  -0.41557  -0.41358  -0.41258
 Alpha  occ. eigenvalues --   -0.40880  -0.40764  -0.40607  -0.40508  -0.40411
 Alpha  occ. eigenvalues --   -0.40184  -0.39786  -0.39707  -0.39020  -0.38928
 Alpha  occ. eigenvalues --   -0.38554  -0.38341  -0.38150  -0.37766  -0.37471
 Alpha  occ. eigenvalues --   -0.37238  -0.37004  -0.36673  -0.35808  -0.35528
 Alpha  occ. eigenvalues --   -0.35411  -0.35289  -0.34877  -0.34714  -0.34652
 Alpha  occ. eigenvalues --   -0.34088  -0.33961  -0.33000  -0.32739  -0.32132
 Alpha  occ. eigenvalues --   -0.30444  -0.30017  -0.28139  -0.27882  -0.27282
 Alpha  occ. eigenvalues --   -0.26374  -0.26167  -0.25824  -0.25659  -0.25518
 Alpha  occ. eigenvalues --   -0.24797  -0.24665  -0.24431  -0.24267  -0.22871
 Alpha  occ. eigenvalues --   -0.21855  -0.21501  -0.21378  -0.17807
 Alpha virt. eigenvalues --   -0.04932  -0.03872  -0.01799  -0.01603  -0.01027
 Alpha virt. eigenvalues --   -0.00618   0.00009   0.00217   0.00660   0.01071
 Alpha virt. eigenvalues --    0.01404   0.03029   0.03723   0.04746   0.05921
 Alpha virt. eigenvalues --    0.06423   0.06915   0.07233   0.07603   0.07667
 Alpha virt. eigenvalues --    0.07912   0.08335   0.08592   0.08622   0.09157
 Alpha virt. eigenvalues --    0.09410   0.09514   0.09611   0.09956   0.10307
 Alpha virt. eigenvalues --    0.10501   0.10628   0.11021   0.11616   0.11832
 Alpha virt. eigenvalues --    0.12116   0.12203   0.12356   0.12609   0.12893
 Alpha virt. eigenvalues --    0.13390   0.13733   0.13881   0.14051   0.14251
 Alpha virt. eigenvalues --    0.14387   0.14657   0.14932   0.15124   0.15641
 Alpha virt. eigenvalues --    0.15828   0.16068   0.16146   0.16499   0.16565
 Alpha virt. eigenvalues --    0.16996   0.17181   0.17419   0.17690   0.17727
 Alpha virt. eigenvalues --    0.17832   0.18128   0.18740   0.19145   0.19497
 Alpha virt. eigenvalues --    0.19610   0.20088   0.20338   0.20596   0.21191
 Alpha virt. eigenvalues --    0.21503   0.22239   0.22830   0.23492   0.23515
 Alpha virt. eigenvalues --    0.23950   0.24311   0.24984   0.25554   0.25850
 Alpha virt. eigenvalues --    0.26254   0.26401   0.26696   0.27585   0.27855
 Alpha virt. eigenvalues --    0.27986   0.28360   0.28731   0.29263   0.29433
 Alpha virt. eigenvalues --    0.29709   0.29932   0.30385   0.30746   0.30857
 Alpha virt. eigenvalues --    0.31312   0.31369   0.31581   0.31883   0.32170
 Alpha virt. eigenvalues --    0.32575   0.32974   0.33298   0.33744   0.34134
 Alpha virt. eigenvalues --    0.34688   0.34937   0.35225   0.35781   0.36003
 Alpha virt. eigenvalues --    0.36209   0.36506   0.37051   0.37369   0.37562
 Alpha virt. eigenvalues --    0.38187   0.38406   0.39273   0.39732   0.39809
 Alpha virt. eigenvalues --    0.40251   0.40587   0.40875   0.41766   0.41855
 Alpha virt. eigenvalues --    0.42306   0.42408   0.42801   0.43418   0.43543
 Alpha virt. eigenvalues --    0.43895   0.44219   0.44506   0.44632   0.44830
 Alpha virt. eigenvalues --    0.45074   0.45433   0.45461   0.45748   0.46233
 Alpha virt. eigenvalues --    0.46374   0.46659   0.46927   0.47087   0.47395
 Alpha virt. eigenvalues --    0.47883   0.47985   0.48174   0.48238   0.48381
 Alpha virt. eigenvalues --    0.48827   0.48868   0.49211   0.49559   0.49857
 Alpha virt. eigenvalues --    0.49994   0.50426   0.50797   0.50906   0.51052
 Alpha virt. eigenvalues --    0.51466   0.51535   0.51804   0.52168   0.52786
 Alpha virt. eigenvalues --    0.52875   0.53347   0.53444   0.53735   0.54136
 Alpha virt. eigenvalues --    0.54936   0.55063   0.55488   0.55694   0.56015
 Alpha virt. eigenvalues --    0.56475   0.56923   0.57205   0.57289   0.58273
 Alpha virt. eigenvalues --    0.58573   0.58745   0.59276   0.59662   0.59970
 Alpha virt. eigenvalues --    0.60369   0.60572   0.60922   0.61295   0.61822
 Alpha virt. eigenvalues --    0.62152   0.62486   0.63047   0.63341   0.63551
 Alpha virt. eigenvalues --    0.63779   0.63944   0.64430   0.64958   0.65349
 Alpha virt. eigenvalues --    0.65709   0.65885   0.66228   0.66509   0.66859
 Alpha virt. eigenvalues --    0.67058   0.67286   0.67605   0.67837   0.67940
 Alpha virt. eigenvalues --    0.68143   0.68471   0.68593   0.68867   0.69098
 Alpha virt. eigenvalues --    0.69368   0.69451   0.69632   0.69871   0.70105
 Alpha virt. eigenvalues --    0.70219   0.70372   0.70514   0.70716   0.70833
 Alpha virt. eigenvalues --    0.70992   0.71130   0.71314   0.71439   0.71585
 Alpha virt. eigenvalues --    0.71680   0.71928   0.71991   0.72358   0.72504
 Alpha virt. eigenvalues --    0.72923   0.73182   0.73244   0.73636   0.73814
 Alpha virt. eigenvalues --    0.73848   0.74038   0.74149   0.74415   0.74550
 Alpha virt. eigenvalues --    0.74813   0.75090   0.75229   0.75440   0.75595
 Alpha virt. eigenvalues --    0.75878   0.76036   0.76322   0.76455   0.76781
 Alpha virt. eigenvalues --    0.76879   0.76981   0.77335   0.77529   0.77966
 Alpha virt. eigenvalues --    0.78087   0.78390   0.78545   0.78921   0.79009
 Alpha virt. eigenvalues --    0.79347   0.79606   0.79707   0.79982   0.80393
 Alpha virt. eigenvalues --    0.80794   0.81364   0.81500   0.81809   0.82355
 Alpha virt. eigenvalues --    0.82444   0.82558   0.82768   0.83209   0.83618
 Alpha virt. eigenvalues --    0.83844   0.84147   0.84488   0.84778   0.85142
 Alpha virt. eigenvalues --    0.85350   0.85716   0.85781   0.86424   0.86580
 Alpha virt. eigenvalues --    0.87097   0.87288   0.87450   0.87779   0.88355
 Alpha virt. eigenvalues --    0.88576   0.88973   0.89644   0.89859   0.90124
 Alpha virt. eigenvalues --    0.90798   0.90996   0.91512   0.91976   0.92495
 Alpha virt. eigenvalues --    0.93094   0.93363   0.94004   0.94331   0.94866
 Alpha virt. eigenvalues --    0.95750   0.96043   0.96303   0.96594   0.97367
 Alpha virt. eigenvalues --    0.97889   0.98212   0.99437   0.99785   1.00045
 Alpha virt. eigenvalues --    1.00955   1.01586   1.01990   1.02631   1.03421
 Alpha virt. eigenvalues --    1.04072   1.04379   1.05156   1.05888   1.06376
 Alpha virt. eigenvalues --    1.07828   1.08368   1.08972   1.09173   1.10206
 Alpha virt. eigenvalues --    1.11189   1.11860   1.12250   1.12728   1.13330
 Alpha virt. eigenvalues --    1.14684   1.14834   1.15819   1.15874   1.16631
 Alpha virt. eigenvalues --    1.17198   1.17954   1.19031   1.19703   1.21046
 Alpha virt. eigenvalues --    1.21342   1.22048   1.22723   1.23331   1.23855
 Alpha virt. eigenvalues --    1.24152   1.25143   1.25358   1.25847   1.26363
 Alpha virt. eigenvalues --    1.26433   1.26700   1.27320   1.27623   1.27956
 Alpha virt. eigenvalues --    1.29331   1.29932   1.30650   1.31761   1.32320
 Alpha virt. eigenvalues --    1.33101   1.33726   1.34340   1.35651   1.35873
 Alpha virt. eigenvalues --    1.36252   1.36341   1.37433   1.37769   1.38607
 Alpha virt. eigenvalues --    1.39150   1.39248   1.39895   1.40161   1.40316
 Alpha virt. eigenvalues --    1.40478   1.40833   1.41684   1.42244   1.42772
 Alpha virt. eigenvalues --    1.43010   1.44455   1.45232   1.46078   1.46709
 Alpha virt. eigenvalues --    1.47440   1.48404   1.48843   1.50006   1.50023
 Alpha virt. eigenvalues --    1.50348   1.50643   1.50743   1.50885   1.51180
 Alpha virt. eigenvalues --    1.51366   1.52069   1.52376   1.54071   1.56412
 Alpha virt. eigenvalues --    1.57333   1.58283   1.59158   1.59776   1.60064
 Alpha virt. eigenvalues --    1.60603   1.62869   1.64754   1.65894   1.67680
 Alpha virt. eigenvalues --    1.68326   1.68811   1.71273   1.72205   1.73705
 Alpha virt. eigenvalues --    1.74541   1.75193   1.75651   1.75910   1.76832
 Alpha virt. eigenvalues --    1.77676   1.77959   1.79185   1.79643   1.80466
 Alpha virt. eigenvalues --    1.80633   1.81362   1.81953   1.82306   1.82458
 Alpha virt. eigenvalues --    1.83308   1.83934   1.84605   1.85075   1.85986
 Alpha virt. eigenvalues --    1.86186   1.86413   1.86873   1.87842   1.88304
 Alpha virt. eigenvalues --    1.88350   1.89092   1.89245   1.89570   1.90168
 Alpha virt. eigenvalues --    1.90463   1.90542   1.90667   1.91307   1.91687
 Alpha virt. eigenvalues --    1.92126   1.92477   1.92616   1.93285   1.93574
 Alpha virt. eigenvalues --    1.94000   1.94969   1.95468   1.96264   1.96728
 Alpha virt. eigenvalues --    1.97494   1.97745   1.98598   1.98976   1.99292
 Alpha virt. eigenvalues --    2.00244   2.00487   2.01177   2.01736   2.02651
 Alpha virt. eigenvalues --    2.03415   2.03865   2.04205   2.05374   2.05400
 Alpha virt. eigenvalues --    2.06425   2.06748   2.07930   2.08185   2.08503
 Alpha virt. eigenvalues --    2.09000   2.09458   2.10218   2.10576   2.10841
 Alpha virt. eigenvalues --    2.11246   2.11399   2.11644   2.11935   2.13999
 Alpha virt. eigenvalues --    2.14252   2.14753   2.15460   2.16712   2.18360
 Alpha virt. eigenvalues --    2.19362   2.19728   2.20043   2.20285   2.20470
 Alpha virt. eigenvalues --    2.20659   2.20955   2.21088   2.21484   2.22116
 Alpha virt. eigenvalues --    2.22240   2.22436   2.22707   2.23483   2.23955
 Alpha virt. eigenvalues --    2.24638   2.25734   2.26155   2.26693   2.26864
 Alpha virt. eigenvalues --    2.27587   2.28208   2.28519   2.29149   2.29230
 Alpha virt. eigenvalues --    2.29963   2.30194   2.30723   2.31252   2.31512
 Alpha virt. eigenvalues --    2.31749   2.31979   2.32672   2.32903   2.33079
 Alpha virt. eigenvalues --    2.33785   2.33828   2.34481   2.34514   2.35044
 Alpha virt. eigenvalues --    2.35421   2.36095   2.36384   2.36927   2.38966
 Alpha virt. eigenvalues --    2.39380   2.40407   2.44657   2.45012   2.45215
 Alpha virt. eigenvalues --    2.48183   2.49167   2.49424   2.49531   2.49624
 Alpha virt. eigenvalues --    2.50193   2.50646   2.52019   2.52454   2.53573
 Alpha virt. eigenvalues --    2.54390   2.54732   2.55811   2.56336   2.56961
 Alpha virt. eigenvalues --    2.58695   2.59678   2.59934   2.60631   2.61673
 Alpha virt. eigenvalues --    2.61897   2.62511   2.62863   2.63630   2.64508
 Alpha virt. eigenvalues --    2.65814   2.66348   2.66717   2.66822   2.67073
 Alpha virt. eigenvalues --    2.67399   2.68014   2.68173   2.69173   2.69529
 Alpha virt. eigenvalues --    2.70787   2.70806   2.76353   2.76473   2.76849
 Alpha virt. eigenvalues --    2.78121   2.78810   2.79162   2.79507   2.79738
 Alpha virt. eigenvalues --    2.80245   2.80628   2.82218   2.82591   2.84163
 Alpha virt. eigenvalues --    2.85646   2.88734   2.89346   2.89382   2.90023
 Alpha virt. eigenvalues --    2.92020   2.92607   2.94045   2.94741   2.99850
 Alpha virt. eigenvalues --    3.02516   3.03889   3.04371   3.08827   3.09448
 Alpha virt. eigenvalues --    3.32991   3.33814   3.38308   3.38613   3.44167
 Alpha virt. eigenvalues --    3.44653
          Condensed to atoms (all electrons):
 Mulliken charges:
               1
     1  P    0.382987
     2  P    0.325124
     3  C   -0.313550
     4  C   -0.303745
     5  C   -0.190433
     6  C   -0.028812
     7  C   -0.101270
     8  C   -0.019643
     9  C   -0.093245
    10  H    0.158964
    11  H    0.136963
    12  H    0.160121
    13  H    0.136871
    14  H    0.111666
    15  C   -0.198599
    16  C    0.017770
    17  C   -0.152712
    18  C   -0.159805
    19  C   -0.143788
    20  C    0.027410
    21  H    0.083805
    22  H    0.095464
    23  C   -0.190372
    24  C    0.028473
    25  C   -0.191942
    26  C   -0.065101
    27  C   -0.202019
    28  C    0.023368
    29  H    0.104647
    30  H    0.074245
    31  Fe  -0.220494
    32  C   -0.087079
    33  C   -0.064608
    34  C   -0.106519
    35  C   -0.107842
    36  C   -0.083477
    37  H    0.113149
    38  H    0.146775
    39  H    0.141406
    40  H    0.110481
    41  H    0.064905
    42  H    0.061495
    43  C   -0.290818
    44  H    0.144019
    45  H    0.132426
    46  H    0.129751
    47  C   -0.298407
    48  H    0.135835
    49  H    0.121436
    50  H    0.168726
    51  C   -0.292383
    52  H    0.132197
    53  H    0.144501
    54  H    0.128208
    55  C   -0.290527
    56  H    0.139184
    57  H    0.125098
    58  H    0.137553
    59  H    0.106377
    60  H    0.097100
    61  H    0.113686
    62  C   -0.158394
    63  C   -0.153394
    64  C    0.052894
    65  C   -0.070146
    66  H    0.163619
    67  C    0.080655
    68  C   -0.158296
    69  C   -0.148211
    70  H    0.090546
    71  C   -0.140131
    72  C   -0.092337
    73  H    0.125029
    74  H    0.078259
    75  C   -0.082823
    76  H    0.080705
    77  H    0.093977
    78  H    0.093457
    79  C   -0.160132
    80  C   -0.121448
    81  C    0.065427
    82  C   -0.076760
    83  H    0.128564
    84  C    0.072816
    85  C   -0.197122
    86  C   -0.137419
    87  H    0.094197
    88  C   -0.133104
    89  C   -0.082015
    90  H    0.143042
    91  H    0.085422
    92  C   -0.078546
    93  H    0.084733
    94  H    0.094798
    95  H    0.097143
 Sum of Mulliken charges =  -0.00000
 Mulliken charges with hydrogens summed into heavy atoms:
               1
     1  P    0.382987
     2  P    0.325124
     3  C   -0.154586
     4  C    0.130210
     5  C   -0.190433
     6  C   -0.028812
     7  C   -0.004170
     8  C    0.086734
     9  C    0.018421
    15  C   -0.133694
    16  C    0.017770
    17  C   -0.068907
    18  C   -0.159805
    19  C   -0.048324
    20  C    0.027410
    23  C   -0.128878
    24  C    0.028473
    25  C   -0.087295
    26  C   -0.065101
    27  C   -0.127773
    28  C    0.023368
    31  Fe  -0.220494
    32  C    0.026071
    33  C    0.049078
    34  C    0.040256
    35  C    0.033564
    36  C    0.027004
    43  C    0.115379
    47  C    0.127589
    51  C    0.112523
    55  C    0.111307
    62  C   -0.158394
    63  C    0.010225
    64  C    0.052894
    65  C    0.020400
    67  C    0.080655
    68  C   -0.033267
    69  C   -0.069952
    71  C   -0.059426
    72  C    0.001640
    75  C    0.010634
    79  C   -0.160132
    80  C    0.007115
    81  C    0.065427
    82  C    0.017437
    84  C    0.072816
    85  C   -0.054080
    86  C   -0.051997
    88  C   -0.048371
    89  C    0.012783
    92  C    0.018597
 Electronic spatial extent (au):  <R**2>=          30733.0785
 Charge=             -0.0000 electrons
 Dipole moment (field-independent basis, Debye):
    X=              0.5838    Y=             -1.0324    Z=              1.5662  Tot=              1.9646
 Quadrupole moment (field-independent basis, Debye-Ang):
   XX=           -309.7997   YY=           -308.6487   ZZ=           -298.8083
   XY=              8.0279   XZ=             -4.2995   YZ=              4.8157
 Traceless Quadrupole moment (field-independent basis, Debye-Ang):
   XX=             -4.0475   YY=             -2.8964   ZZ=              6.9439
   XY=              8.0279   XZ=             -4.2995   YZ=              4.8157
 Octapole moment (field-independent basis, Debye-Ang**2):
  XXX=            576.9250  YYY=            109.0850  ZZZ=            235.7823  XYY=            175.4799
  XXY=              3.8206  XXZ=             67.9802  XZZ=            204.5582  YZZ=             -6.6102
  YYZ=            107.7123  XYZ=            -51.1246
 Hexadecapole moment (field-independent basis, Debye-Ang**3):
 XXXX=         -17440.9338 YYYY=         -12981.3120 ZZZZ=         -10154.9830 XXXY=          -1089.5102
 XXXZ=           1641.1503 YYYX=          -1216.5525 YYYZ=          -1029.1608 ZZZX=           1421.8554
 ZZZY=           -758.0796 XXYY=          -5369.8407 XXZZ=          -4646.5501 YYZZ=          -3888.9704
 XXYZ=           -291.6996 YYXZ=            651.3302 ZZXY=           -416.7337
 N-N= 8.140113746394D+03 E-N=-2.519802525266D+04  KE= 3.774725706055D+03
 No NMR shielding tensors so no spin-rotation constants.
 Leave Link  601 at Fri Sep 29 19:35:16 2023, MaxMem=  4026531840 cpu:               4.0 elap:               0.4
 (Enter /sw/arch/RHEL8/EB_production/2022/software/Gaussian/g16.c02/l607.exe)
 ******************************Gaussian NBO Version 3.1******************************
             N A T U R A L   A T O M I C   O R B I T A L   A N D
          N A T U R A L   B O N D   O R B I T A L   A N A L Y S I S
 ******************************Gaussian NBO Version 3.1******************************
       /RESON  / : Allow strongly delocalized NBO set

 Analyzing the SCF density

 Job title: Cisa                                                            

 Storage needed:   2045190 in NPA,   2701109 in NBO (4026484625 available)


 NATURAL POPULATIONS:  Natural atomic orbital occupancies 
                                                          
   NAO  Atom  No  lang   Type(AO)    Occupancy      Energy
 ----------------------------------------------------------
     1    P    1  S      Cor( 1S)     1.99999     -76.22834
     2    P    1  S      Cor( 2S)     1.99858      -7.34019
     3    P    1  S      Val( 3S)     1.26893      -0.38551
     4    P    1  S      Ryd( 4S)     0.00419       0.78851
     5    P    1  px     Cor( 2p)     1.99983      -4.73072
     6    P    1  px     Val( 3p)     1.25618      -0.08836
     7    P    1  px     Ryd( 4p)     0.00521       0.90151
     8    P    1  py     Cor( 2p)     1.99977      -4.73270
     9    P    1  py     Val( 3p)     0.69996      -0.03178
    10    P    1  py     Ryd( 4p)     0.00438       0.82327
    11    P    1  pz     Cor( 2p)     1.99976      -4.73212
    12    P    1  pz     Val( 3p)     0.87372      -0.04836
    13    P    1  pz     Ryd( 4p)     0.00538       0.84469
    14    P    1  dxy    Ryd( 3d)     0.00405       0.97684
    15    P    1  dxz    Ryd( 3d)     0.00464       1.14671
    16    P    1  dyz    Ryd( 3d)     0.00690       1.21574
    17    P    1  dx2y2  Ryd( 3d)     0.00489       1.16697
    18    P    1  dz2    Ryd( 3d)     0.00256       1.05708
 
    19    P    2  S      Cor( 1S)     1.99999     -76.33110
    20    P    2  S      Cor( 2S)     1.99873      -7.22361
    21    P    2  S      Val( 3S)     1.27497      -0.38339
    22    P    2  S      Ryd( 4S)     0.00490       0.76748
    23    P    2  px     Cor( 2p)     1.99977      -4.72172
    24    P    2  px     Val( 3p)     0.78031      -0.02883
    25    P    2  px     Ryd( 4p)     0.00385       0.87900
    26    P    2  py     Cor( 2p)     1.99979      -4.72089
    27    P    2  py     Val( 3p)     1.00128      -0.05829
    28    P    2  py     Ryd( 4p)     0.00541       0.85289
    29    P    2  pz     Cor( 2p)     1.99981      -4.72061
    30    P    2  pz     Val( 3p)     1.06774      -0.06924
    31    P    2  pz     Ryd( 4p)     0.00589       0.82832
    32    P    2  dxy    Ryd( 3d)     0.00754       1.11199
    33    P    2  dxz    Ryd( 3d)     0.00388       0.97139
    34    P    2  dyz    Ryd( 3d)     0.00335       1.04333
    35    P    2  dx2y2  Ryd( 3d)     0.00374       1.02983
    36    P    2  dz2    Ryd( 3d)     0.00562       1.16794
 
    37    C    3  S      Cor( 1S)     1.99899     -10.11658
    38    C    3  S      Val( 2S)     0.98722      -0.22732
    39    C    3  S      Ryd( 3S)     0.00487       1.03234
    40    C    3  px     Val( 2p)     1.13722      -0.11950
    41    C    3  px     Ryd( 3p)     0.00313       0.72486
    42    C    3  py     Val( 2p)     1.15296      -0.13576
    43    C    3  py     Ryd( 3p)     0.00579       0.77569
    44    C    3  pz     Val( 2p)     1.21851      -0.10075
    45    C    3  pz     Ryd( 3p)     0.00375       0.81344
    46    C    3  dxy    Ryd( 3d)     0.00121       2.19459
    47    C    3  dxz    Ryd( 3d)     0.00068       2.17576
    48    C    3  dyz    Ryd( 3d)     0.00061       2.05377
    49    C    3  dx2y2  Ryd( 3d)     0.00082       2.07652
    50    C    3  dz2    Ryd( 3d)     0.00118       2.14222
 
    51    C    4  S      Cor( 1S)     1.99926     -10.09765
    52    C    4  S      Val( 2S)     1.06859      -0.22471
    53    C    4  S      Ryd( 3S)     0.00091       0.96708
    54    C    4  px     Val( 2p)     1.21332      -0.07462
    55    C    4  px     Ryd( 3p)     0.00347       0.72592
    56    C    4  py     Val( 2p)     1.11739      -0.07044
    57    C    4  py     Ryd( 3p)     0.00244       0.62341
    58    C    4  pz     Val( 2p)     1.21200      -0.07604
    59    C    4  pz     Ryd( 3p)     0.00283       0.66561
    60    C    4  dxy    Ryd( 3d)     0.00090       2.17716
    61    C    4  dxz    Ryd( 3d)     0.00061       2.10315
    62    C    4  dyz    Ryd( 3d)     0.00028       1.95190
    63    C    4  dx2y2  Ryd( 3d)     0.00032       1.98304
    64    C    4  dz2    Ryd( 3d)     0.00078       2.10247
 
    65    C    5  S      Cor( 1S)     1.99859     -10.10200
    66    C    5  S      Val( 2S)     0.93006      -0.18784
    67    C    5  S      Ryd( 3S)     0.00395       0.97008
    68    C    5  px     Val( 2p)     1.08677      -0.10913
    69    C    5  px     Ryd( 3p)     0.00767       0.84023
    70    C    5  py     Val( 2p)     1.15174      -0.16042
    71    C    5  py     Ryd( 3p)     0.00942       1.08474
    72    C    5  pz     Val( 2p)     1.19090      -0.14085
    73    C    5  pz     Ryd( 3p)     0.00627       0.93566
    74    C    5  dxy    Ryd( 3d)     0.00084       2.29243
    75    C    5  dxz    Ryd( 3d)     0.00086       2.28109
    76    C    5  dyz    Ryd( 3d)     0.00107       2.14915
    77    C    5  dx2y2  Ryd( 3d)     0.00103       2.12544
    78    C    5  dz2    Ryd( 3d)     0.00071       2.15460
 
    79    C    6  S      Cor( 1S)     1.99859     -10.10666
    80    C    6  S      Val( 2S)     0.83055      -0.11642
    81    C    6  S      Ryd( 3S)     0.00514       0.96981
    82    C    6  px     Val( 2p)     1.03848      -0.11048
    83    C    6  px     Ryd( 3p)     0.00913       1.10288
    84    C    6  py     Val( 2p)     1.07623      -0.08988
    85    C    6  py     Ryd( 3p)     0.00654       0.92652
    86    C    6  pz     Val( 2p)     1.08257      -0.09182
    87    C    6  pz     Ryd( 3p)     0.00629       0.91703
    88    C    6  dxy    Ryd( 3d)     0.00098       2.32589
    89    C    6  dxz    Ryd( 3d)     0.00092       2.27825
    90    C    6  dyz    Ryd( 3d)     0.00068       2.23500
    91    C    6  dx2y2  Ryd( 3d)     0.00082       2.19019
    92    C    6  dz2    Ryd( 3d)     0.00112       2.15964
 
    93    C    7  S      Cor( 1S)     1.99863     -10.09790
    94    C    7  S      Val( 2S)     0.93064      -0.14924
    95    C    7  S      Ryd( 3S)     0.00290       0.83964
    96    C    7  px     Val( 2p)     1.04826      -0.08474
    97    C    7  px     Ryd( 3p)     0.00481       0.75283
    98    C    7  py     Val( 2p)     1.19122      -0.08167
    99    C    7  py     Ryd( 3p)     0.00411       0.96321
   100    C    7  pz     Val( 2p)     1.04040      -0.08779
   101    C    7  pz     Ryd( 3p)     0.00591       0.69887
   102    C    7  dxy    Ryd( 3d)     0.00085       2.22372
   103    C    7  dxz    Ryd( 3d)     0.00063       2.27348
   104    C    7  dyz    Ryd( 3d)     0.00086       2.21403
   105    C    7  dx2y2  Ryd( 3d)     0.00086       2.16273
   106    C    7  dz2    Ryd( 3d)     0.00097       2.09603
 
   107    C    8  S      Cor( 1S)     1.99866     -10.10152
   108    C    8  S      Val( 2S)     0.94221      -0.15674
   109    C    8  S      Ryd( 3S)     0.00260       0.84701
   110    C    8  px     Val( 2p)     1.11436      -0.07311
   111    C    8  px     Ryd( 3p)     0.00492       0.79021
   112    C    8  py     Val( 2p)     1.05897      -0.07154
   113    C    8  py     Ryd( 3p)     0.00529       0.64783
   114    C    8  pz     Val( 2p)     1.08565      -0.09747
   115    C    8  pz     Ryd( 3p)     0.00665       0.82428
   116    C    8  dxy    Ryd( 3d)     0.00062       2.22947
   117    C    8  dxz    Ryd( 3d)     0.00104       2.15148
   118    C    8  dyz    Ryd( 3d)     0.00085       2.23493
   119    C    8  dx2y2  Ryd( 3d)     0.00094       2.09453
   120    C    8  dz2    Ryd( 3d)     0.00084       2.14132
 
   121    C    9  S      Cor( 1S)     1.99863     -10.09586
   122    C    9  S      Val( 2S)     0.93283      -0.15159
   123    C    9  S      Ryd( 3S)     0.00323       0.86967
   124    C    9  px     Val( 2p)     1.14779      -0.07802
   125    C    9  px     Ryd( 3p)     0.00479       0.87414
   126    C    9  py     Val( 2p)     1.08817      -0.09082
   127    C    9  py     Ryd( 3p)     0.00751       0.89453
   128    C    9  pz     Val( 2p)     1.02785      -0.08084
   129    C    9  pz     Ryd( 3p)     0.00641       0.67716
   130    C    9  dxy    Ryd( 3d)     0.00098       2.15618
   131    C    9  dxz    Ryd( 3d)     0.00063       2.25865
   132    C    9  dyz    Ryd( 3d)     0.00067       2.30269
   133    C    9  dx2y2  Ryd( 3d)     0.00082       2.23072
   134    C    9  dz2    Ryd( 3d)     0.00105       2.02063
 
   135    H   10  S      Val( 1S)     0.72733       0.10245
   136    H   10  S      Ryd( 2S)     0.00334       0.52615
 
   137    H   11  S      Val( 1S)     0.78326       0.08329
   138    H   11  S      Ryd( 2S)     0.00233       0.47399
 
   139    H   12  S      Val( 1S)     0.76218       0.10267
   140    H   12  S      Ryd( 2S)     0.00148       0.45993
 
   141    H   13  S      Val( 1S)     0.78620       0.08341
   142    H   13  S      Ryd( 2S)     0.00131       0.45933
 
   143    H   14  S      Val( 1S)     0.74234       0.11685
   144    H   14  S      Ryd( 2S)     0.00138       0.41952
 
   145    C   15  S      Cor( 1S)     1.99884     -10.08980
   146    C   15  S      Val( 2S)     0.92103      -0.11361
   147    C   15  S      Ryd( 3S)     0.00185       0.62552
   148    C   15  px     Val( 2p)     1.01802      -0.09753
   149    C   15  px     Ryd( 3p)     0.00127       0.62133
   150    C   15  py     Val( 2p)     1.10022      -0.04069
   151    C   15  py     Ryd( 3p)     0.00386       0.80279
   152    C   15  pz     Val( 2p)     1.16186      -0.04850
   153    C   15  pz     Ryd( 3p)     0.00582       0.98824
   154    C   15  dxy    Ryd( 3d)     0.00050       2.01443
   155    C   15  dxz    Ryd( 3d)     0.00043       1.89518
   156    C   15  dyz    Ryd( 3d)     0.00081       2.35519
   157    C   15  dx2y2  Ryd( 3d)     0.00050       2.20925
   158    C   15  dz2    Ryd( 3d)     0.00070       2.28723
 
   159    C   16  S      Cor( 1S)     1.99885     -10.10465
   160    C   16  S      Val( 2S)     0.85738      -0.10103
   161    C   16  S      Ryd( 3S)     0.00097       0.60699
   162    C   16  px     Val( 2p)     0.99163      -0.09009
   163    C   16  px     Ryd( 3p)     0.00193       0.69062
   164    C   16  py     Val( 2p)     1.08797      -0.04787
   165    C   16  py     Ryd( 3p)     0.00382       0.91916
   166    C   16  pz     Val( 2p)     1.08317      -0.05102
   167    C   16  pz     Ryd( 3p)     0.00541       1.06925
   168    C   16  dxy    Ryd( 3d)     0.00069       2.01541
   169    C   16  dxz    Ryd( 3d)     0.00076       1.95102
   170    C   16  dyz    Ryd( 3d)     0.00086       2.40318
   171    C   16  dx2y2  Ryd( 3d)     0.00052       2.21818
   172    C   16  dz2    Ryd( 3d)     0.00078       2.37507
 
   173    C   17  S      Cor( 1S)     1.99882     -10.08736
   174    C   17  S      Val( 2S)     0.91247      -0.10734
   175    C   17  S      Ryd( 3S)     0.00228       0.67674
   176    C   17  px     Val( 2p)     1.01413      -0.09644
   177    C   17  px     Ryd( 3p)     0.00208       0.70958
   178    C   17  py     Val( 2p)     1.18610      -0.05433
   179    C   17  py     Ryd( 3p)     0.00730       1.06985
   180    C   17  pz     Val( 2p)     1.07930      -0.03481
   181    C   17  pz     Ryd( 3p)     0.00401       0.77443
   182    C   17  dxy    Ryd( 3d)     0.00044       1.89785
   183    C   17  dxz    Ryd( 3d)     0.00056       1.99733
[...]
                                                    720(r),722(r),718(r),779(r)
                                                    760(r),762(r),427(r),445(r)
                                                    719(r),266(r),198(g),247(r)
                                                    282(r),407(r),721(r),275(r)
                                                    239(r),257(r),416(r),708(r)
                                                    199(g),443(r),418(r),409(r)
                                                    414(r),256(r),274(r),268(r)
                                                    405(r),425(r),441(r),434(r)
                                                    432(r),424(r),452(r),423(r)
                                                    751(r),440(r),431(r),709(r)
                                                    449(r),543(r),272(r),731(r)
                                                    281(r),687(r),263(r),421(r)
                                                    254(r),245(r),413(r),341(r)
                                                    701(r),259(r),255(r),264(r)
                                                    715(r),433(r),757(r),412(r)
                                                    716(r),422(r),251(r),712(r)
                                                    517(r),308(r),451(r),448(r)
                                                    778(r),504(r),415(r),702(r)
   197. LP*(   7)Fe  31                  0.20779     0.28364  752(r),200(r),758(r),715(r)
                                                    445(r),427(r),701(r),762(r)
                                                    722(r),418(r),505(r),719(r)
                                                    286(r),759(r),704(r),703(r)
                                                    283(r),453(r),506(r),273(r)
                                                    450(r),409(r),705(r),259(r)
                                                    451(r),756(r),255(r),606(r)
                                                    276(r),605(r),222(r),754(r)
                                                    441(r),249(r),717(r),751(r)
                                                    221(r),708(r),274(r),710(r)
                                                    714(r),757(r),760(r),431(r)
                                                    281(r),247(r),615(r),753(r)
                                                    254(r),258(r),414(r)
   198. LP*(   8)Fe  31                  0.20286     0.29058  190(r),717(r),715(r),196(g)
                                                    701(r),409(r),758(r),418(r)
                                                    761(r),268(r),721(r),436(r)
                                                    504(r),450(r),709(r),506(r)
                                                    703(r),432(r),606(r),704(r)
                                                    249(r),754(r),264(r),452(r)
                                                    237(r),759(r),282(r),240(r)
                                                    756(r),245(r),716(r),412(r)
                                                    221(r),719(r),407(r),708(r)
                                                    762(r),207(r),718(r),714(r)
                                                    720(r),421(r),416(r),422(r)
                                                    413(r),247(r),254(r)
   199. LP*(   9)Fe  31                  0.12815     0.23428  704(r),400(g),190(r),200(r)
                                                    709(r),701(r),703(r),779(r)
                                                    254(r),245(r),263(r),272(r)
                                                    281(r),266(r),436(r),440(r)
                                                    445(r),431(r),449(r),257(r)
                                                    275(r),268(r),721(r),239(r)
                                                    722(r),710(r),247(r),421(r)
                                                    427(r)
   399. RY*(   1)Fe  31                  0.00461     0.59699   
   400. RY*(   2)Fe  31                  0.00065     0.88744   
   401. RY*(   3)Fe  31                  0.00023     1.41663   
   402. RY*(   4)Fe  31                  0.00014     1.42484   
   403. RY*(   5)Fe  31                  0.00005     1.31641   
   404. RY*(   6)Fe  31                  0.00003     1.34088   
       -------------------------------
              Total Lewis   23.52441  ( 90.5405%)
        Valence non-Lewis    2.45210  (  9.4376%)
        Rydberg non-Lewis    0.00570  (  0.0219%)
       -------------------------------
            Total unit  2   25.98221  (100.0000%)
           Charge unit  2    0.01779
 
 Molecular unit  3  (C5H5)
    51. BD (   1) C  32 - C  33          1.96820    -0.64126  196(r),198(r),195(r),762(v)
                                                    759(v),424(v),199(r),442(v)
                                                    754(g),756(g),755(g),753(g)
                                                    441(v),194(r),190(r),197(r)
                                                    239(r)
    52. BD (   2) C  32 - C  33          1.52430    -0.28270  200(v),195(r),198(r),196(r)
                                                    190(r),758(v),199(r),194(r)
                                                    401(r),755(g),762(v),759(v)
                                                    407(g),197(r),756(g),400(r)
                                                    715(r),402(r),717(r),264(r)
    53. BD (   1) C  32 - C  36          1.95515    -0.65113  200(g),196(r),198(r),195(r)
                                                    756(v),199(r),761(v),197(r)
                                                    433(v),194(r),751(g),760(g)
                                                    762(g),754(g),415(v),414(v)
                                                    190(r),239(r),249(r)
    54. BD (   1) C  32 - H  37          1.98104    -0.53135  198(r),760(v),755(v),196(r)
                                                    751(g),753(g),199(r),197(r)
                                                    399(r),195(r)
    55. BD (   1) C  33 - C  34          1.95441    -0.66554  196(r),197(r),194(r),199(r)
                                                    754(v),761(v),198(r),751(g)
                                                    757(g),759(g),756(g),406(v)
                                                    432(v),433(v),405(v),190(r)
                                                    247(r)
    56. BD (   1) C  33 - H  61          1.98078    -0.52970  198(r),757(v),753(v),197(r)
                                                    196(r),751(g),755(g),199(r)
                                                    425(v),399(r)
    57. BD (   1) C  34 - C  35          1.96597    -0.63532  196(r),195(r),762(v),756(v)
                                                    199(r),415(v),442(v),197(r)
                                                    761(g),759(g),755(g),760(g)
                                                    624(r),198(r),194(r),190(r)
    58. BD (   2) C  34 - C  35          1.52037    -0.27535  200(v),195(r),196(r),199(r)
                                                    752(v),197(r),198(r),190(r)
                                                    194(r),401(r),755(g),762(v)
                                                    717(r),400(r),399(r),624(r)
                                                    606(r),239(r),701(r),804(r)
                                                    249(r),404(r),715(r),605(r)
    59. BD (   1) C  34 - H  38          1.97997    -0.52372  197(r),751(v),760(v),196(r)
                                                    757(g),755(g),199(r),434(v)
                                                    416(v),399(r),606(r)
    60. BD (   1) C  35 - C  36          1.95541    -0.64977  200(g),196(r),199(r),194(r)
                                                    759(v),754(v),406(v),757(g)
                                                    195(r),753(g),762(g),761(g)
                                                    423(v),197(r),198(r),190(r)
                                                    282(r),624(r)
    61. BD (   1) C  35 - H  39          1.97929    -0.52538  196(r),753(v),755(v),198(r)
                                                    199(r),757(g),760(g),425(v)
                                                    443(v),812(r),652(r),399(r)
                                                    624(r),195(r),804(r)
    62. BD (   1) C  36 - H  40          1.98086    -0.53117  197(r),757(v),751(v),196(r)
                                                    200(g),199(r),760(g),753(g)
                                                    434(v),399(r),283(r),710(r)
   159. CR (   1) C  32                  1.99865   -10.10310  196(r),198(r),199(r),442(v)
                                                    415(v),200(v),762(v),756(v)
                                                    450(v),197(r),760(v),195(r)
                                                    400(r)
   160. CR (   1) C  33                  1.99865   -10.10185  196(r),198(r),197(r),406(v)
                                                    199(r),759(v),754(v),424(v)
                                                    506(v),423(v),757(v),194(r)
                                                    400(r)
   161. CR (   1) C  34                  1.99868   -10.09644  196(r),197(r),199(r),433(v)
                                                    415(v),451(v),761(v),756(v)
                                                    751(v),194(r),195(r),400(r)
   162. CR (   1) C  35                  1.99868   -10.09696  196(r),199(r),442(v),424(v)
                                                    200(v),198(r),452(v),762(v)
                                                    759(v),753(v),195(r),400(r)
   163. CR (   1) C  36                  1.99868   -10.10185  196(r),200(g),197(r),199(r)
                                                    406(v),433(v),761(v),754(v)
                                                    453(v),757(v),751(v),760(g)
                                                    194(r),198(r),400(r)
   200. LP (   1) C  36                  0.98733    -0.12287  190(r),194(r),758(v),752(v)
                                                    196(r),197(r),195(r),760(g)
                                                    753(g),199(r),441(g),761(v)
                                                    754(v),443(g),402(r),408(v)
                                                    435(v),433(v),404(r),198(r)
                                                    403(r),400(r),283(r),717(r)
   405. RY*(   1) C  32                  0.00395     0.89982   
   406. RY*(   2) C  32                  0.00363     0.65878   
   407. RY*(   3) C  32                  0.00264     1.16039   
   408. RY*(   4) C  32                  0.00132     1.88127   
   409. RY*(   5) C  32                  0.00093     0.71572   
   410. RY*(   6) C  32                  0.00021     1.96400   
   411. RY*(   7) C  32                  0.00010     2.34365   
   412. RY*(   8) C  32                  0.00007     2.10846   
   413. RY*(   9) C  32                  0.00005     2.12475   
   414. RY*(   1) C  33                  0.00398     0.88337   
   415. RY*(   2) C  33                  0.00358     0.66537   
   416. RY*(   3) C  33                  0.00272     1.19897   
   417. RY*(   4) C  33                  0.00132     1.87461   
   418. RY*(   5) C  33                  0.00091     0.71256   
   419. RY*(   6) C  33                  0.00019     1.97011   
   420. RY*(   7) C  33                  0.00010     2.34745   
   421. RY*(   8) C  33                  0.00005     2.13388   
   422. RY*(   9) C  33                  0.00006     2.10172   
   423. RY*(   1) C  34                  0.00434     0.89942   
   424. RY*(   2) C  34                  0.00393     0.74743   
   425. RY*(   3) C  34                  0.00274     1.29727   
   426. RY*(   4) C  34                  0.00129     1.87771   
   427. RY*(   5) C  34                  0.00097     0.72629   
   428. RY*(   6) C  34                  0.00021     2.02692   
   429. RY*(   7) C  34                  0.00011     2.25566   
   430. RY*(   8) C  34                  0.00011     2.19911   
   431. RY*(   9) C  34                  0.00005     2.18799   
   432. RY*(   1) C  35                  0.00407     0.87811   
   433. RY*(   2) C  35                  0.00383     0.72896   
   434. RY*(   3) C  35                  0.00262     1.33325   
   435. RY*(   4) C  35                  0.00131     1.90054   
   436. RY*(   5) C  35                  0.00099     0.69706   
   437. RY*(   6) C  35                  0.00020     2.00596   
   438. RY*(   7) C  35                  0.00011     2.38043   
   439. RY*(   8) C  35                  0.00008     2.08072   
   440. RY*(   9) C  35                  0.00005     2.17349   
   441. RY*(   1) C  36                  0.00399     0.87821   
   442. RY*(   2) C  36                  0.00358     0.65646   
   443. RY*(   3) C  36                  0.00260     1.22781   
   444. RY*(   4) C  36                  0.00109     1.89422   
   445. RY*(   5) C  36                  0.00093     0.71291   
   446. RY*(   6) C  36                  0.00020     1.97122   
   447. RY*(   7) C  36                  0.00010     2.34724   
   448. RY*(   8) C  36                  0.00007     2.08362   
   449. RY*(   9) C  36                  0.00005     2.15698   
   450. RY*(   1) H  37                  0.00117     0.35628   
   451. RY*(   1) H  38                  0.00366     0.56512   
   452. RY*(   1) H  39                  0.00267     0.53566   
   453. RY*(   1) H  40                  0.00134     0.38088   
   506. RY*(   1) H  61                  0.00116     0.36037   
   751. BD*(   1) C  32 - C  33          0.03062     0.51838   
   752. BD*(   2) C  32 - C  33          0.47087     0.04738  758(v),200(v),751(g),197(r)
                                                    194(r),717(r),414(g),405(g)
                                                    195(r),407(g),715(r),416(g)
                                                    404(r),402(r),799(r),247(r)
                                                    198(r),239(r),804(r)
   753. BD*(   1) C  32 - C  36          0.02892     0.52607   
   754. BD*(   1) C  32 - H  37          0.01603     0.49470   
   755. BD*(   1) C  33 - C  34          0.01348     0.54901   
   756. BD*(   1) C  33 - H  61          0.01605     0.49625   
   757. BD*(   1) C  34 - C  35          0.02989     0.52431   
   758. BD*(   2) C  34 - C  35          0.46992     0.04940  752(v),807(r),200(v),194(r)
                                                    757(g),197(r),812(r),432(g)
                                                    717(r),423(g),198(r),715(r)
                                                    403(r),195(r),402(r),196(r)
   759. BD*(   1) C  34 - H  38          0.01691     0.52450   
   760. BD*(   1) C  35 - C  36          0.02959     0.53282   
   761. BD*(   1) C  35 - H  39          0.01797     0.51797   
   762. BD*(   1) C  36 - H  40          0.01657     0.49563   
       -------------------------------
              Total Lewis   33.72643  ( 96.4752%)
        Valence non-Lewis    1.15682  (  3.3091%)
        Rydberg non-Lewis    0.07540  (  0.2157%)
       -------------------------------
            Total unit  3   34.95865  (100.0000%)
           Charge unit  3    0.04135
 Leave Link  607 at Fri Sep 29 19:35:20 2023, MaxMem=  4026531840 cpu:              34.0 elap:               3.8
 (Enter /sw/arch/RHEL8/EB_production/2022/software/Gaussian/g16.c02/l9999.exe)
 Unable to Open any file for archive entry.
 1\1\GINC-TCN1231\SP\RPBE1PBE\def2SVPP\C48H44Fe1P2\ADARSH\29-Sep-2023\0
 \\#p pop=nbo pbe1pbe/def2svpp empiricaldispersion=gd3bj integral=grid=
 ultrafinegrid scf=(xqc,maxconventionalcycles=90) nosymm\\Cisa\\0,1\P,0
 ,0.17591,0.81686,-0.71818\P,0,-2.6501,-0.73667,-0.26541\C,0,-1.48799,-
 2.18697,-0.09644\C,0,-2.10451,-3.47411,0.43926\C,0,0.53798,-0.56916,0.
 39566\C,0,-0.26719,-1.73817,0.65721\C,0,0.31311,-2.41115,1.77434\C,0,1
 .47109,-1.69599,2.18894\C,0,1.62477,-0.57459,1.33545\H,0,-1.19638,-2.3
 6668,-1.14692\H,0,-1.35217,-4.28077,0.41297\H,0,-2.96054,-3.78832,-0.1
 7697\H,0,-2.46168,-3.37578,1.47626\H,0,2.41738,0.1706,1.39023\C,0,-3.0
 9329,1.43291,3.76232\C,0,-2.75732,0.07294,3.79013\C,0,-2.63788,-0.6086
 7,2.57589\C,0,-2.83454,0.058,1.36158\C,0,-3.16132,1.41827,1.36621\C,0,
 -3.3034,2.12281,2.56563\H,0,-2.37227,-1.66687,2.59122\H,0,-3.26954,1.9
 4559,0.4113\C,0,-6.71058,-2.55411,-1.404\C,0,-6.63643,-1.77593,-0.2469
 9\C,0,-5.39453,-1.2356,0.11579\C,0,-4.26502,-1.46591,-0.66996\C,0,-4.3
 6979,-2.24426,-1.83194\C,0,-5.59074,-2.80389,-2.2096\H,0,-5.31255,-0.6
 3427,1.02635\H,0,-3.48255,-2.43347,-2.44812\Fe,0,1.64873,-2.28144,0.23
 739\C,0,2.67742,-4.04634,0.18359\C,0,3.56135,-2.95464,-0.05393\C,0,3.1
 0471,-2.25926,-1.20762\C,0,1.93887,-2.925,-1.68919\C,0,1.67655,-4.0293
 2,-0.83091\H,0,2.73997,-4.75323,1.01127\H,0,3.55552,-1.36376,-1.63374\
 H,0,1.3494,-2.62862,-2.55641\H,0,0.84505,-4.7294,-0.92021\H,0,-3.18724
 ,1.97435,4.71011\H,0,-7.67511,-2.98731,-1.69072\C,0,-2.55761,-0.64472,
 5.09429\H,0,-3.52024,-1.01757,5.49011\H,0,-1.88931,-1.51357,4.9779\H,0
 ,-2.12674,0.02094,5.86019\C,0,-3.61237,3.5915,2.54772\H,0,-4.43068,3.8
 2224,1.84458\H,0,-3.905,3.9572,3.54493\H,0,-2.72531,4.16702,2.22412\C,
 0,-7.85944,-1.50217,0.58052\H,0,-7.60192,-1.33738,1.63954\H,0,-8.37962
 ,-0.59435,0.2229\H,0,-8.57952,-2.33475,0.52545\C,0,-5.71225,-3.65328,-
 3.44224\H,0,-6.45081,-3.2309,-4.14605\H,0,-4.74977,-3.74091,-3.97183\H
 ,0,-6.05269,-4.67305,-3.19025\H,0,2.14939,-1.98849,2.99031\H,0,-0.0387
 5,-3.34712,2.20583\H,0,4.41621,-2.67822,0.56366\C,0,0.32087,2.27635,0.
 38759\C,0,0.0396,2.08347,1.72975\C,0,0.5674,3.605,-0.09957\C,0,0.02001
 ,3.15907,2.6415\H,0,-0.17899,1.08188,2.10603\C,0,0.55067,4.68949,0.838
 11\C,0,0.82845,3.91936,-1.4602\C,0,0.27655,4.43528,2.20621\H,0,-0.2019
 4,2.96068,3.69336\C,0,0.80267,6.0109,0.38637\C,0,1.06353,5.2128,-1.869
 56\H,0,0.84894,3.12179,-2.20286\H,0,0.271,5.27618,2.90624\C,0,1.05564,
 6.27377,-0.93893\H,0,0.79039,6.82259,1.11996\H,0,1.26024,5.41665,-2.92
 596\H,0,1.24946,7.29675,-1.27289\C,0,1.63465,0.82556,-1.82638\C,0,2.80
 709,1.41217,-1.3873\C,0,1.58992,0.17882,-3.10203\C,0,3.97332,1.39495,-
 2.17954\H,0,2.83343,1.91473,-0.41607\C,0,2.7786,0.16859,-3.90229\C,0,0
 .43924,-0.47566,-3.61836\C,0,3.95665,0.78808,-3.41367\H,0,4.88477,1.87
 035,-1.80739\C,0,2.76245,-0.47466,-5.16803\C,0,0.45217,-1.08608,-4.850
 95\H,0,-0.48565,-0.48442,-3.02002\H,0,4.856,0.77199,-4.03641\C,0,1.626
 2,-1.08845,-5.63814\H,0,3.67919,-0.47416,-5.76504\H,0,-0.45181,-1.5781
 ,-5.22222\H,0,1.62865,-1.58043,-6.61463\\Version=ES64L-G16RevC.02\HF=-
 3797.7739095\RMSD=5.334e-09\Dipole=0.2296974,-0.4061781,0.6161946\Quad
 rupole=-3.0092108,-2.1534235,5.1626343,5.9685391,-3.1965376,3.5803751\
 PG=C01 [X(C48H44Fe1P2)]\\@
 The archive entry for this job was punched.


 WE MIGHT AS WELL ATTEMPT TO INTRODUCE A NEW PLANET 
 INTO THE SOLAR SYSTEM, OR TO ANNIHILATE ONE ALREADYIN EXISTENCE, 
 AS TO CREATE OR DESTROY A PARTICLE OF HYDROGEN.
 ALL THE CHANGES WE CAN PRODUCE CONSIST IN SEPARATING PARTICLES
 THAT ARE IN A STATE OF ... COMBINATION, AND JOINING 
 THOSE THAT WERE PREVIOUSLY AT A DISTANCE.

                                    -- JOHN DALTON, 1810
 Job cpu time:       0 days  1 hours 41 minutes 51.2 seconds.
 Elapsed time:       0 days  0 hours  3 minutes 33.5 seconds.
 File lengths (MBytes):  RWF=    576 Int=      0 D2E=      0 Chk=     44 Scr=     32
 Normal termination of Gaussian 16 at Fri Sep 29 19:35:20 2023.
