 Entering Gaussian System, Link 0=g16
 Input=free_ligand_L8_SP.inp
 Output=free_ligand_L8_SP.log
 Initial command:
 /sw/arch/RHEL8/EB_production/2022/software/Gaussian/g16.c02/l1.exe "/scratch-local/adarsh.3962543/Gau-3017322.inp" -scrdir="/scratch-local/adarsh.3962543/"
 Entering Link 1 = /sw/arch/RHEL8/EB_production/2022/software/Gaussian/g16.c02/l1.exe PID=   3017363.
  
 Copyright (c) 1988-2021, Gaussian, Inc.  All Rights Reserved.
  
 This is part of the Gaussian(R) 16 program.  It is based on
 the Gaussian(R) 09 system (copyright 2009, Gaussian, Inc.),
 the Gaussian(R) 03 system (copyright 2003, Gaussian, Inc.),
 the Gaussian(R) 98 system (copyright 1998, Gaussian, Inc.),
 the Gaussian(R) 94 system (copyright 1995, Gaussian, Inc.),
 the Gaussian 92(TM) system (copyright 1992, Gaussian, Inc.),
 the Gaussian 90(TM) system (copyright 1990, Gaussian, Inc.),
 the Gaussian 88(TM) system (copyright 1988, Gaussian, Inc.),
 the Gaussian 86(TM) system (copyright 1986, Carnegie Mellon
 University), and the Gaussian 82(TM) system (copyright 1983,
 Carnegie Mellon University). Gaussian is a federally registered
 trademark of Gaussian, Inc.
  
 This software contains proprietary and confidential information,
 including trade secrets, belonging to Gaussian, Inc.
  
 This software is provided under written license and may be
 used, copied, transmitted, or stored only in accord with that
 written license.
  
 The following legend is applicable only to US Government
 contracts under FAR:
  
                    RESTRICTED RIGHTS LEGEND
  
 Use, reproduction and disclosure by the US Government is
 subject to restrictions as set forth in subparagraphs (a)
 and (c) of the Commercial Computer Software - Restricted
 Rights clause in FAR 52.227-19.
  
 Gaussian, Inc.
 340 Quinnipiac St., Bldg. 40, Wallingford CT 06492
  
  
 ---------------------------------------------------------------
 Warning -- This program may not be used in any manner that
 competes with the business of Gaussian, Inc. or will provide
 assistance to any competitor of Gaussian, Inc.  The licensee
 of this program is prohibited from giving any competitor of
 Gaussian, Inc. access to this program.  By using this program,
 the user acknowledges that Gaussian, Inc. is engaged in the
 business of creating and licensing software in the field of
 computational chemistry and represents and warrants to the
 licensee that it is not a competitor of Gaussian, Inc. and that
 it will not use this program in any manner prohibited above.
 ---------------------------------------------------------------
  

 Cite this work as:
 Gaussian 16, Revision C.02,
 M. J. Frisch, G. W. Trucks, H. B. Schlegel, G. E. Scuseria, 
 M. A. Robb, J. R. Cheeseman, G. Scalmani, V. Barone, 
 G. A. Petersson, H. Nakatsuji, X. Li, M. Caricato, A. V. Marenich, 
 J. Bloino, B. G. Janesko, R. Gomperts, B. Mennucci, H. P. Hratchian, 
 J. V. Ortiz, A. F. Izmaylov, J. L. Sonnenberg, D. Williams-Young, 
 F. Ding, F. Lipparini, F. Egidi, J. Goings, B. Peng, A. Petrone, 
 T. Henderson, D. Ranasinghe, V. G. Zakrzewski, J. Gao, N. Rega, 
 G. Zheng, W. Liang, M. Hada, M. Ehara, K. Toyota, R. Fukuda, 
 J. Hasegawa, M. Ishida, T. Nakajima, Y. Honda, O. Kitao, H. Nakai, 
 T. Vreven, K. Throssell, J. A. Montgomery, Jr., J. E. Peralta, 
 F. Ogliaro, M. J. Bearpark, J. J. Heyd, E. N. Brothers, K. N. Kudin, 
 V. N. Staroverov, T. A. Keith, R. Kobayashi, J. Normand, 
 K. Raghavachari, A. P. Rendell, J. C. Burant, S. S. Iyengar, 
 J. Tomasi, M. Cossi, J. M. Millam, M. Klene, C. Adamo, R. Cammi, 
 J. W. Ochterski, R. L. Martin, K. Morokuma, O. Farkas, 
 J. B. Foresman, and D. J. Fox, Gaussian, Inc., Wallingford CT, 2019.
 
 ******************************************
 Gaussian 16:  ES64L-G16RevC.02  7-Dec-2021
                29-Sep-2023 
 ******************************************
 %nprocshared=32
 Will use up to   32 processors via shared memory.
 %mem=30GB
 %chk=free_ligand_L8.chk
 ----------------------------------------------------------------------
 #p pop=nbo pbe1pbe/def2svpp empiricaldispersion=gd3bj integral=grid=ul
 trafinegrid scf=(xqc,maxconventionalcycles=90) nosymm
 ----------------------------------------------------------------------
 1/38=1,172=1/1;
 2/12=2,15=1,17=6,18=5,40=1/2;
 3/5=43,7=202,11=2,25=1,30=1,74=-13,75=-5,124=41/1,2,3;
 4//1;
 5/5=2,8=3,13=1,38=5,85=90/2,8;
 6/7=2,8=2,9=2,10=2,28=1,40=1/1,7;
 99/5=1,9=1/99;
 Leave Link    1 at Fri Sep 29 19:31:36 2023, MaxMem=  4026531840 cpu:               0.1 elap:               0.7
 (Enter /sw/arch/RHEL8/EB_production/2022/software/Gaussian/g16.c02/l101.exe)
 ----
 Cisa
 ----
 Symbolic Z-matrix:
 Charge =  0 Multiplicity = 1
 P                     0.15989   0.75727  -0.57358 
 C                     1.6005    0.87932  -1.68822 
 C                     1.46352   0.34069  -2.96658 
 C                     2.54122   0.33384  -3.84948 
 C                     3.77085   0.85566  -3.45964 
 C                     3.91029   1.38696  -2.17609 
 C                     2.83149   1.41115  -1.295 
 C                     0.30859   2.20898   0.52382 
 C                     0.08217   2.11416   1.90273 
 C                     0.1276    3.2599    2.69081 
 C                     0.34734   4.51405   2.11636 
 C                     0.54787   4.60752   0.74389 
 C                     0.54978   3.45934  -0.04761 
 P                    -2.64542  -0.77405  -0.25752 
 C                    -1.50137  -2.23672  -0.06352 
 C                    -2.15649  -3.50584   0.47085 
 C                     0.52533  -0.63385   0.50797 
 C                    -0.27675  -1.81971   0.70612 
 C                     0.31189  -2.54341   1.78554 
 C                     1.46563  -1.84416   2.23726 
 C                     1.61037  -0.6747    1.44978 
 H                     0.49767  -0.0758   -3.27356 
 H                     2.95906   1.84733  -0.30068 
 H                    -0.11636   1.14514   2.36599 
 H                     0.75191   3.54962  -1.11944 
 H                    -1.20342  -2.42709  -1.11009 
 H                    -1.43083  -4.33657   0.44409 
 H                    -3.02061  -3.79324  -0.14729 
 H                    -2.51077  -3.39486   1.5078 
 H                     2.4006    0.06983   1.54587 
 C                    -3.17811   1.45663   3.72313 
 C                    -2.7798    0.11609   3.78197 
 C                    -2.62466  -0.58792   2.58336 
 C                    -2.84624   0.04231   1.35474 
 C                    -3.2261    1.39105   1.32812 
 C                    -3.40493   2.11419   2.50979 
 H                    -2.31272  -1.63297   2.6241 
 H                    -3.36733   1.89142   0.36307 
 C                    -6.7067   -2.5194   -1.48453 
 C                    -6.63614  -1.77644  -0.3037 
 C                    -5.39344  -1.25724   0.08442 
 C                    -4.26002  -1.47477  -0.70038 
 C                    -4.36017  -2.21739  -1.88559 
 C                    -5.58323  -2.7554   -2.2888 
 H                    -5.31403  -0.68336   1.01256 
 H                    -3.47024  -2.39724  -2.50036 
 Fe                    1.64328  -2.31543   0.2506 
 C                     2.60734  -4.10724   0.04881 
 C                     3.53895  -3.03439  -0.0445 
 C                     3.15196  -2.20663  -1.13491 
 C                     1.98069  -2.77226  -1.7214 
 C                     1.64529  -3.9459   -0.98989 
 H                     2.6135   -4.89736   0.79998 
 H                     3.66174  -1.29754  -1.45215 
 H                     1.445    -2.38058  -2.58528 
 H                     0.79272  -4.59912  -1.17968 
 H                     4.61644   0.85189  -4.15052 
 H                     0.37442   5.41285   2.7367 
 H                    -3.29516   2.01409   4.65816 
 H                    -7.67256  -2.93529  -1.79173 
 C                    -2.5069   -0.53644   5.10591 
 H                    -3.3879   -0.48065   5.76856 
 H                    -2.23607  -1.59771   4.9878 
 H                    -1.67565  -0.0274    5.62443 
 C                    -3.81419   3.55832   2.47889 
 H                    -4.83199   3.69167   2.88689 
 H                    -3.13477   4.17373   3.09153 
 H                    -3.80855   3.95663   1.45123 
 C                    -7.86481  -1.52076   0.52097 
 H                    -7.60899  -1.29805   1.56947 
 H                    -8.42855  -0.65537   0.12646 
 H                    -8.54663  -2.38689   0.50825 
 C                    -5.7022   -3.5683   -3.54585 
 H                    -6.44512  -3.12995  -4.2349 
 H                    -4.7407   -3.63485  -4.0801 
 H                    -6.03606  -4.59698  -3.32279 
 F                     1.92784  -1.51688  -5.14587 
 C                     2.32101  -0.24005  -5.22489 
 F                     1.34843   0.42629  -5.85916 
 F                     3.41363  -0.18947  -5.97349 
 F                     5.91201   0.85545  -1.09862 
 C                     5.26163   1.85816  -1.69956 
 F                     6.01701   2.28477  -2.70591 
 F                     5.1455    2.84626  -0.81329 
 F                     0.98847   3.75438   4.80963 
 C                    -0.03581   3.17522   4.18755 
 F                    -1.14686   3.80349   4.59274 
 F                    -0.11017   1.91227   4.61039 
 F                    -0.29129   6.19112  -0.75417 
 C                     0.74043   5.93902   0.06491 
 F                     0.82345   6.93793   0.93466 
 F                     1.84286   5.94062  -0.68431 
 H                     2.14461  -2.17361   3.02346 
 H                    -0.03399  -3.50125   2.17107 
 H                     4.3818   -2.85819   0.62415 
 
 ITRead=  0  0  0  0  0  0  0  0  0  0  0  0  0  0  0  0  0  0  0  0
 ITRead=  0  0  0  0  0  0  0  0  0  0  0  0  0  0  0  0  0  0  0  0
 ITRead=  0  0  0  0  0  0  0  0  0  0  0  0  0  0  0  0  0  0  0  0
 ITRead=  0  0  0  0  0  0  0  0  0  0  0  0  0  0  0  0  0  0  0  0
 ITRead=  0  0  0  0  0  0  0  0  0  0  0  0  0  0  0
 MicOpt= -1 -1 -1 -1 -1 -1 -1 -1 -1 -1 -1 -1 -1 -1 -1 -1 -1 -1 -1 -1
 MicOpt= -1 -1 -1 -1 -1 -1 -1 -1 -1 -1 -1 -1 -1 -1 -1 -1 -1 -1 -1 -1
 MicOpt= -1 -1 -1 -1 -1 -1 -1 -1 -1 -1 -1 -1 -1 -1 -1 -1 -1 -1 -1 -1
 MicOpt= -1 -1 -1 -1 -1 -1 -1 -1 -1 -1 -1 -1 -1 -1 -1 -1 -1 -1 -1 -1
 MicOpt= -1 -1 -1 -1 -1 -1 -1 -1 -1 -1 -1 -1 -1 -1 -1
 NAtoms=     95 NQM=       95 NQMF=       0 NMMI=      0 NMMIF=      0
                NMic=       0 NMicF=      0.
                    Isotopes and Nuclear Properties:
 (Nuclear quadrupole moments (NQMom) in fm**2, nuclear magnetic moments (NMagM)
  in nuclear magnetons)

  Atom         1           2           3           4           5           6           7           8           9          10
 IAtWgt=          31          12          12          12          12          12          12          12          12          12
 AtmWgt=  30.9737634  12.0000000  12.0000000  12.0000000  12.0000000  12.0000000  12.0000000  12.0000000  12.0000000  12.0000000
 NucSpn=           1           0           0           0           0           0           0           0           0           0
 AtZEff=  -0.0000000  -0.0000000  -0.0000000  -0.0000000  -0.0000000  -0.0000000  -0.0000000  -0.0000000  -0.0000000  -0.0000000
 NQMom=    0.0000000   0.0000000   0.0000000   0.0000000   0.0000000   0.0000000   0.0000000   0.0000000   0.0000000   0.0000000
 NMagM=    1.1316000   0.0000000   0.0000000   0.0000000   0.0000000   0.0000000   0.0000000   0.0000000   0.0000000   0.0000000
 AtZNuc=  15.0000000   6.0000000   6.0000000   6.0000000   6.0000000   6.0000000   6.0000000   6.0000000   6.0000000   6.0000000

  Atom        11          12          13          14          15          16          17          18          19          20
 IAtWgt=          12          12          12          31          12          12          12          12          12          12
 AtmWgt=  12.0000000  12.0000000  12.0000000  30.9737634  12.0000000  12.0000000  12.0000000  12.0000000  12.0000000  12.0000000
 NucSpn=           0           0           0           1           0           0           0           0           0           0
 AtZEff=  -0.0000000  -0.0000000  -0.0000000  -0.0000000  -0.0000000  -0.0000000  -0.0000000  -0.0000000  -0.0000000  -0.0000000
 NQMom=    0.0000000   0.0000000   0.0000000   0.0000000   0.0000000   0.0000000   0.0000000   0.0000000   0.0000000   0.0000000
 NMagM=    0.0000000   0.0000000   0.0000000   1.1316000   0.0000000   0.0000000   0.0000000   0.0000000   0.0000000   0.0000000
 AtZNuc=   6.0000000   6.0000000   6.0000000  15.0000000   6.0000000   6.0000000   6.0000000   6.0000000   6.0000000   6.0000000

  Atom        21          22          23          24          25          26          27          28          29          30
 IAtWgt=          12           1           1           1           1           1           1           1           1           1
 AtmWgt=  12.0000000   1.0078250   1.0078250   1.0078250   1.0078250   1.0078250   1.0078250   1.0078250   1.0078250   1.0078250
 NucSpn=           0           1           1           1           1           1           1           1           1           1
 AtZEff=  -0.0000000  -0.0000000  -0.0000000  -0.0000000  -0.0000000  -0.0000000  -0.0000000  -0.0000000  -0.0000000  -0.0000000
 NQMom=    0.0000000   0.0000000   0.0000000   0.0000000   0.0000000   0.0000000   0.0000000   0.0000000   0.0000000   0.0000000
 NMagM=    0.0000000   2.7928460   2.7928460   2.7928460   2.7928460   2.7928460   2.7928460   2.7928460   2.7928460   2.7928460
 AtZNuc=   6.0000000   1.0000000   1.0000000   1.0000000   1.0000000   1.0000000   1.0000000   1.0000000   1.0000000   1.0000000

  Atom        31          32          33          34          35          36          37          38          39          40
 IAtWgt=          12          12          12          12          12          12           1           1          12          12
 AtmWgt=  12.0000000  12.0000000  12.0000000  12.0000000  12.0000000  12.0000000   1.0078250   1.0078250  12.0000000  12.0000000
 NucSpn=           0           0           0           0           0           0           1           1           0           0
 AtZEff=  -0.0000000  -0.0000000  -0.0000000  -0.0000000  -0.0000000  -0.0000000  -0.0000000  -0.0000000  -0.0000000  -0.0000000
 NQMom=    0.0000000   0.0000000   0.0000000   0.0000000   0.0000000   0.0000000   0.0000000   0.0000000   0.0000000   0.0000000
 NMagM=    0.0000000   0.0000000   0.0000000   0.0000000   0.0000000   0.0000000   2.7928460   2.7928460   0.0000000   0.0000000
 AtZNuc=   6.0000000   6.0000000   6.0000000   6.0000000   6.0000000   6.0000000   1.0000000   1.0000000   6.0000000   6.0000000

  Atom        41          42          43          44          45          46          47          48          49          50
 IAtWgt=          12          12          12          12           1           1          56          12          12          12
 AtmWgt=  12.0000000  12.0000000  12.0000000  12.0000000   1.0078250   1.0078250  55.9349393  12.0000000  12.0000000  12.0000000
 NucSpn=           0           0           0           0           1           1           0           0           0           0
 AtZEff=  -0.0000000  -0.0000000  -0.0000000  -0.0000000  -0.0000000  -0.0000000  -0.0000000  -0.0000000  -0.0000000  -0.0000000
 NQMom=    0.0000000   0.0000000   0.0000000   0.0000000   0.0000000   0.0000000   0.0000000   0.0000000   0.0000000   0.0000000
 NMagM=    0.0000000   0.0000000   0.0000000   0.0000000   2.7928460   2.7928460   0.0000000   0.0000000   0.0000000   0.0000000
 AtZNuc=   6.0000000   6.0000000   6.0000000   6.0000000   1.0000000   1.0000000  26.0000000   6.0000000   6.0000000   6.0000000

  Atom        51          52          53          54          55          56          57          58          59          60
 IAtWgt=          12          12           1           1           1           1           1           1           1           1
 AtmWgt=  12.0000000  12.0000000   1.0078250   1.0078250   1.0078250   1.0078250   1.0078250   1.0078250   1.0078250   1.0078250
 NucSpn=           0           0           1           1           1           1           1           1           1           1
 AtZEff=  -0.0000000  -0.0000000  -0.0000000  -0.0000000  -0.0000000  -0.0000000  -0.0000000  -0.0000000  -0.0000000  -0.0000000
 NQMom=    0.0000000   0.0000000   0.0000000   0.0000000   0.0000000   0.0000000   0.0000000   0.0000000   0.0000000   0.0000000
 NMagM=    0.0000000   0.0000000   2.7928460   2.7928460   2.7928460   2.7928460   2.7928460   2.7928460   2.7928460   2.7928460
 AtZNuc=   6.0000000   6.0000000   1.0000000   1.0000000   1.0000000   1.0000000   1.0000000   1.0000000   1.0000000   1.0000000

  Atom        61          62          63          64          65          66          67          68          69          70
 IAtWgt=          12           1           1           1          12           1           1           1          12           1
 AtmWgt=  12.0000000   1.0078250   1.0078250   1.0078250  12.0000000   1.0078250   1.0078250   1.0078250  12.0000000   1.0078250
 NucSpn=           0           1           1           1           0           1           1           1           0           1
 AtZEff=  -0.0000000  -0.0000000  -0.0000000  -0.0000000  -0.0000000  -0.0000000  -0.0000000  -0.0000000  -0.0000000  -0.0000000
 NQMom=    0.0000000   0.0000000   0.0000000   0.0000000   0.0000000   0.0000000   0.0000000   0.0000000   0.0000000   0.0000000
 NMagM=    0.0000000   2.7928460   2.7928460   2.7928460   0.0000000   2.7928460   2.7928460   2.7928460   0.0000000   2.7928460
 AtZNuc=   6.0000000   1.0000000   1.0000000   1.0000000   6.0000000   1.0000000   1.0000000   1.0000000   6.0000000   1.0000000

  Atom        71          72          73          74          75          76          77          78          79          80
 IAtWgt=           1           1          12           1           1           1          19          12          19          19
 AtmWgt=   1.0078250   1.0078250  12.0000000   1.0078250   1.0078250   1.0078250  18.9984032  12.0000000  18.9984032  18.9984032
 NucSpn=           1           1           0           1           1           1           1           0           1           1
 AtZEff=  -0.0000000  -0.0000000  -0.0000000  -0.0000000  -0.0000000  -0.0000000  -0.0000000  -0.0000000  -0.0000000  -0.0000000
 NQMom=    0.0000000   0.0000000   0.0000000   0.0000000   0.0000000   0.0000000   0.0000000   0.0000000   0.0000000   0.0000000
 NMagM=    2.7928460   2.7928460   0.0000000   2.7928460   2.7928460   2.7928460   2.6288670   0.0000000   2.6288670   2.6288670
 AtZNuc=   1.0000000   1.0000000   6.0000000   1.0000000   1.0000000   1.0000000   9.0000000   6.0000000   9.0000000   9.0000000

  Atom        81          82          83          84          85          86          87          88          89          90
 IAtWgt=          19          12          19          19          19          12          19          19          19          12
 AtmWgt=  18.9984032  12.0000000  18.9984032  18.9984032  18.9984032  12.0000000  18.9984032  18.9984032  18.9984032  12.0000000
 NucSpn=           1           0           1           1           1           0           1           1           1           0
 AtZEff=  -0.0000000  -0.0000000  -0.0000000  -0.0000000  -0.0000000  -0.0000000  -0.0000000  -0.0000000  -0.0000000  -0.0000000
 NQMom=    0.0000000   0.0000000   0.0000000   0.0000000   0.0000000   0.0000000   0.0000000   0.0000000   0.0000000   0.0000000
 NMagM=    2.6288670   0.0000000   2.6288670   2.6288670   2.6288670   0.0000000   2.6288670   2.6288670   2.6288670   0.0000000
 AtZNuc=   9.0000000   6.0000000   9.0000000   9.0000000   9.0000000   6.0000000   9.0000000   9.0000000   9.0000000   6.0000000

  Atom        91          92          93          94          95
 IAtWgt=          19          19           1           1           1
 AtmWgt=  18.9984032  18.9984032   1.0078250   1.0078250   1.0078250
 NucSpn=           1           1           1           1           1
 AtZEff=  -0.0000000  -0.0000000  -0.0000000  -0.0000000  -0.0000000
 NQMom=    0.0000000   0.0000000   0.0000000   0.0000000   0.0000000
 NMagM=    2.6288670   2.6288670   2.7928460   2.7928460   2.7928460
 AtZNuc=   9.0000000   9.0000000   1.0000000   1.0000000   1.0000000
 Leave Link  101 at Fri Sep 29 19:31:36 2023, MaxMem=  4026531840 cpu:               0.3 elap:               0.1
 (Enter /sw/arch/RHEL8/EB_production/2022/software/Gaussian/g16.c02/l202.exe)
 Symmetry turned off by external request.
 Stoichiometry    C44H36F12FeP2
 Framework group  C1[X(C44H36F12FeP2)]
 Deg. of freedom   279
 Full point group                 C1      NOp   1
                          Input orientation:                          
 ---------------------------------------------------------------------
 Center     Atomic      Atomic             Coordinates (Angstroms)
 Number     Number       Type             X           Y           Z
 ---------------------------------------------------------------------
      1         15           0        0.159890    0.757270   -0.573580
      2          6           0        1.600500    0.879320   -1.688220
      3          6           0        1.463520    0.340690   -2.966580
      4          6           0        2.541220    0.333840   -3.849480
      5          6           0        3.770850    0.855660   -3.459640
      6          6           0        3.910290    1.386960   -2.176090
      7          6           0        2.831490    1.411150   -1.295000
      8          6           0        0.308590    2.208980    0.523820
      9          6           0        0.082170    2.114160    1.902730
     10          6           0        0.127600    3.259900    2.690810
     11          6           0        0.347340    4.514050    2.116360
     12          6           0        0.547870    4.607520    0.743890
     13          6           0        0.549780    3.459340   -0.047610
     14         15           0       -2.645420   -0.774050   -0.257520
     15          6           0       -1.501370   -2.236720   -0.063520
     16          6           0       -2.156490   -3.505840    0.470850
     17          6           0        0.525330   -0.633850    0.507970
     18          6           0       -0.276750   -1.819710    0.706120
     19          6           0        0.311890   -2.543410    1.785540
     20          6           0        1.465630   -1.844160    2.237260
     21          6           0        1.610370   -0.674700    1.449780
     22          1           0        0.497670   -0.075800   -3.273560
     23          1           0        2.959060    1.847330   -0.300680
     24          1           0       -0.116360    1.145140    2.365990
     25          1           0        0.751910    3.549620   -1.119440
     26          1           0       -1.203420   -2.427090   -1.110090
     27          1           0       -1.430830   -4.336570    0.444090
     28          1           0       -3.020610   -3.793240   -0.147290
     29          1           0       -2.510770   -3.394860    1.507800
     30          1           0        2.400600    0.069830    1.545870
     31          6           0       -3.178110    1.456630    3.723130
     32          6           0       -2.779800    0.116090    3.781970
     33          6           0       -2.624660   -0.587920    2.583360
     34          6           0       -2.846240    0.042310    1.354740
     35          6           0       -3.226100    1.391050    1.328120
     36          6           0       -3.404930    2.114190    2.509790
     37          1           0       -2.312720   -1.632970    2.624100
     38          1           0       -3.367330    1.891420    0.363070
     39          6           0       -6.706700   -2.519400   -1.484530
     40          6           0       -6.636140   -1.776440   -0.303700
     41          6           0       -5.393440   -1.257240    0.084420
     42          6           0       -4.260020   -1.474770   -0.700380
     43          6           0       -4.360170   -2.217390   -1.885590
     44          6           0       -5.583230   -2.755400   -2.288800
     45          1           0       -5.314030   -0.683360    1.012560
     46          1           0       -3.470240   -2.397240   -2.500360
     47         26           0        1.643280   -2.315430    0.250600
     48          6           0        2.607340   -4.107240    0.048810
     49          6           0        3.538950   -3.034390   -0.044500
     50          6           0        3.151960   -2.206630   -1.134910
     51          6           0        1.980690   -2.772260   -1.721400
     52          6           0        1.645290   -3.945900   -0.989890
     53          1           0        2.613500   -4.897360    0.799980
     54          1           0        3.661740   -1.297540   -1.452150
     55          1           0        1.445000   -2.380580   -2.585280
     56          1           0        0.792720   -4.599120   -1.179680
     57          1           0        4.616440    0.851890   -4.150520
     58          1           0        0.374420    5.412850    2.736700
     59          1           0       -3.295160    2.014090    4.658160
     60          1           0       -7.672560   -2.935290   -1.791730
     61          6           0       -2.506900   -0.536440    5.105910
     62          1           0       -3.387900   -0.480650    5.768560
     63          1           0       -2.236070   -1.597710    4.987800
     64          1           0       -1.675650   -0.027400    5.624430
     65          6           0       -3.814190    3.558320    2.478890
     66          1           0       -4.831990    3.691670    2.886890
     67          1           0       -3.134770    4.173730    3.091530
     68          1           0       -3.808550    3.956630    1.451230
     69          6           0       -7.864810   -1.520760    0.520970
     70          1           0       -7.608990   -1.298050    1.569470
     71          1           0       -8.428550   -0.655370    0.126460
     72          1           0       -8.546630   -2.386890    0.508250
     73          6           0       -5.702200   -3.568300   -3.545850
     74          1           0       -6.445120   -3.129950   -4.234900
     75          1           0       -4.740700   -3.634850   -4.080100
     76          1           0       -6.036060   -4.596980   -3.322790
     77          9           0        1.927840   -1.516880   -5.145870
     78          6           0        2.321010   -0.240050   -5.224890
     79          9           0        1.348430    0.426290   -5.859160
     80          9           0        3.413630   -0.189470   -5.973490
     81          9           0        5.912010    0.855450   -1.098620
     82          6           0        5.261630    1.858160   -1.699560
     83          9           0        6.017010    2.284770   -2.705910
     84          9           0        5.145500    2.846260   -0.813290
     85          9           0        0.988470    3.754380    4.809630
     86          6           0       -0.035810    3.175220    4.187550
     87          9           0       -1.146860    3.803490    4.592740
     88          9           0       -0.110170    1.912270    4.610390
     89          9           0       -0.291290    6.191120   -0.754170
     90          6           0        0.740430    5.939020    0.064910
     91          9           0        0.823450    6.937930    0.934660
     92          9           0        1.842860    5.940620   -0.684310
     93          1           0        2.144610   -2.173610    3.023460
     94          1           0       -0.033990   -3.501250    2.171070
     95          1           0        4.381800   -2.858190    0.624150
 ---------------------------------------------------------------------
 Rotational constants (GHZ):           0.0425099           0.0359077           0.0268236
 Leave Link  202 at Fri Sep 29 19:31:36 2023, MaxMem=  4026531840 cpu:               0.1 elap:               0.0
 (Enter /sw/arch/RHEL8/EB_production/2022/software/Gaussian/g16.c02/l301.exe)
 Standard basis: def2SVPP (5D, 7F)
 Ernie: Thresh=  0.10000D-02 Tol=  0.10000D-05 Strict=F.
   916 basis functions,  1689 primitive gaussians,   976 cartesian basis functions
   232 alpha electrons      232 beta electrons
       nuclear repulsion energy     10811.0085660368 Hartrees.
 IExCor= 1009 DFT=T Ex+Corr=PBE1PBE ExCW=0 ScaHFX=  0.250000
 ScaDFX=  0.750000  0.750000  1.000000  1.000000 ScalE2=  1.000000  1.000000
 IRadAn=      5 IRanWt=     -1 IRanGd=            0 ICorTp=0 IEmpDi=141
 NAtoms=   95 NActive=   95 NUniq=   95 SFac= 1.00D+00 NAtFMM=   60 NAOKFM=T Big=T
 Integral buffers will be    131072 words long.
 Raffenetti 2 integral format.
 Two-electron integral symmetry is turned off.
 R6Disp:  Grimme-D3(BJ) Dispersion energy=       -0.1503588854 Hartrees.
 Nuclear repulsion after empirical dispersion term =    10810.8582071513 Hartrees.
 Leave Link  301 at Fri Sep 29 19:31:37 2023, MaxMem=  4026531840 cpu:               0.1 elap:               0.0
 (Enter /sw/arch/RHEL8/EB_production/2022/software/Gaussian/g16.c02/l302.exe)
 NPDir=0 NMtPBC=     1 NCelOv=     1 NCel=       1 NClECP=     1 NCelD=      1
         NCelK=      1 NCelE2=     1 NClLst=     1 CellRange=     0.0.
 One-electron integrals computed using PRISM.
   1 Symmetry operations used in ECPInt.
 ECPInt:  NShTT=   94395 NPrTT=  388562 LenC2=   72148 LenP2D=  176647.
 LDataN:  DoStor=T MaxTD1= 4 Len=   56
 NBasis=   916 RedAO= T EigKep=  2.11D-04  NBF=   916
 NBsUse=   916 1.00D-06 EigRej= -1.00D+00 NBFU=   916
 Precomputing XC quadrature grid using
 IXCGrd= 4 IRadAn=           5 IRanWt=          -1 IRanGd=           0 AccXCQ= 0.00D+00.
 Generated NRdTot=       0 NPtTot=           0 NUsed=           0 NTot=          32
 NSgBfM=   921   921   921   921   921 MxSgAt=    95 MxSgA2=    95.
 Leave Link  302 at Fri Sep 29 19:31:38 2023, MaxMem=  4026531840 cpu:              21.3 elap:               1.5
 (Enter /sw/arch/RHEL8/EB_production/2022/software/Gaussian/g16.c02/l303.exe)
 DipDrv:  MaxL=1.
 Leave Link  303 at Fri Sep 29 19:31:38 2023, MaxMem=  4026531840 cpu:               0.5 elap:               0.2
 (Enter /sw/arch/RHEL8/EB_production/2022/software/Gaussian/g16.c02/l401.exe)
 ExpMin= 3.37D-02 ExpMax= 6.09D+04 ExpMxC= 9.15D+03 IAcc=3 IRadAn=         5 AccDes= 0.00D+00
 Harris functional with IExCor= 1009 and IRadAn=       5 diagonalized for initial guess.
 HarFok:  IExCor= 1009 AccDes= 0.00D+00 IRadAn=         5 IDoV= 1 UseB2=F ITyADJ=14
 ICtDFT=  3500011 ScaDFX=  1.000000  1.000000  1.000000  1.000000
 FoFCou: FMM=F IPFlag=           0 FMFlag=      100000 FMFlg1=        2001
         NFxFlg=           0 DoJE=T BraDBF=F KetDBF=T FulRan=T
         wScrn=  0.000000 ICntrl=       500 IOpCl=  0 I1Cent=   200000004 NGrid=           0
         NMat0=    1 NMatS0=      1 NMatT0=    0 NMatD0=    1 NMtDS0=    0 NMtDT0=    0
 Symmetry not used in FoFCou.
 Harris En= -4837.33690620127    
 JPrj=0 DoOrth=F DoCkMO=F.
 Leave Link  401 at Fri Sep 29 19:31:42 2023, MaxMem=  4026531840 cpu:              90.1 elap:               3.5
 (Enter /sw/arch/RHEL8/EB_production/2022/software/Gaussian/g16.c02/l502.exe)
 Two-electron integral symmetry not used.
 Closed shell SCF:
 Using DIIS extrapolation, IDIIS=  1040.
 NGot=  4026531840 LenX=  4024584140 LenY=  4023630588
 Requested convergence on RMS density matrix=1.00D-08 within  90 cycles.
 Requested convergence on MAX density matrix=1.00D-06.
 Requested convergence on             energy=1.00D-06.
 No special actions if energy rises.
 Fock matrices will be formed incrementally for  20 cycles.

 Cycle   1  Pass 1  IDiag  1:
 FoFJK:  IHMeth= 1 ICntrl=       0 DoSepK=F KAlg= 0 I1Cent=           0 FoldK=F
 IRaf= 880000000 NMat=       1 IRICut=       1 DoRegI=T DoRafI=F ISym2E= 0 IDoP0=0 IntGTp=1.
 FoFCou: FMM=T IPFlag=           0 FMFlag=      100000 FMFlg1=        2001
         NFxFlg=           0 DoJE=F BraDBF=F KetDBF=F FulRan=T
         wScrn=  0.000000 ICntrl=         0 IOpCl=  0 I1Cent=           0 NGrid=           0
         NMat0=    1 NMatS0=      1 NMatT0=    0 NMatD0=    1 NMtDS0=    0 NMtDT0=    0
 Symmetry not used in FoFCou.
 FMM levels:  10  Number of levels for PrismC:   9
 E= -4835.85635928728    
 DIIS: error= 2.35D-02 at cycle   1 NSaved=   1.
 NSaved= 1 IEnMin= 1 EnMin= -4835.85635928728     IErMin= 1 ErrMin= 2.35D-02
 ErrMax= 2.35D-02  0.00D+00 EMaxC= 1.00D-01 BMatC= 1.15D+00 BMatP= 1.15D+00
 IDIUse=3 WtCom= 7.65D-01 WtEn= 2.35D-01
 Coeff-Com:  0.100D+01
 Coeff-En:   0.100D+01
 Coeff:      0.100D+01
 Gap=     0.231 Goal=   None    Shift=    0.000
 GapD=    0.231 DampG=1.000 DampE=0.250 DampFc=0.2500 IDamp=-1.
 Damping current iteration by 2.50D-01
 RMSDP=3.32D-03 MaxDP=2.00D-01              OVMax= 1.90D-01

 Cycle   2  Pass 1  IDiag  1:
 RMSU=  7.97D-04    CP:  9.84D-01
 E= -4836.24619951297     Delta-E=       -0.389840225684 Rises=F Damp=T
 DIIS: error= 1.23D-02 at cycle   2 NSaved=   2.
 NSaved= 2 IEnMin= 2 EnMin= -4836.24619951297     IErMin= 2 ErrMin= 1.23D-02
 ErrMax= 1.23D-02  0.00D+00 EMaxC= 1.00D-01 BMatC= 2.90D-01 BMatP= 1.15D+00
 IDIUse=3 WtCom= 8.77D-01 WtEn= 1.23D-01
 Coeff-Com: -0.596D+00 0.160D+01
 Coeff-En:   0.000D+00 0.100D+01
 Coeff:     -0.523D+00 0.152D+01
 Gap=     0.162 Goal=   None    Shift=    0.000
 RMSDP=3.34D-03 MaxDP=4.85D-01 DE=-3.90D-01 OVMax= 5.41D-01

 Cycle   3  Pass 1  IDiag  1:
 RMSU=  3.30D-03    CP:  9.75D-01  1.59D+00
 E= -4834.74492502146     Delta-E=        1.501274491504 Rises=F Damp=F
 DIIS: error= 9.60D-02 at cycle   3 NSaved=   3.
 NSaved= 3 IEnMin= 2 EnMin= -4836.24619951297     IErMin= 2 ErrMin= 1.23D-02
 ErrMax= 9.60D-02  0.00D+00 EMaxC= 1.00D-01 BMatC= 3.42D+00 BMatP= 2.90D-01
 IDIUse=2 WtCom= 0.00D+00 WtEn= 1.00D+00
 Coeff-En:   0.000D+00 0.814D+00 0.186D+00
 Coeff:      0.000D+00 0.814D+00 0.186D+00
 Gap=     0.316 Goal=   None    Shift=    0.000
 RMSDP=4.23D-03 MaxDP=5.36D-01 DE= 1.50D+00 OVMax= 3.54D-01

 Cycle   4  Pass 1  IDiag  1:
 RMSU=  1.19D-03    CP:  9.36D-01  2.80D+00 -1.83D-01
 E= -4835.34895429818     Delta-E=       -0.604029276719 Rises=F Damp=F
 DIIS: error= 8.83D-02 at cycle   4 NSaved=   4.
 NSaved= 4 IEnMin= 2 EnMin= -4836.24619951297     IErMin= 2 ErrMin= 1.23D-02
 ErrMax= 8.83D-02  0.00D+00 EMaxC= 1.00D-01 BMatC= 2.70D+00 BMatP= 2.90D-01
 IDIUse=2 WtCom= 0.00D+00 WtEn= 1.00D+00
 EnCoef did     2 forward-backward iterations
 Coeff-En:   0.609D-01 0.000D+00 0.421D+00 0.518D+00
 Coeff:      0.609D-01 0.000D+00 0.421D+00 0.518D+00
 Gap=     0.116 Goal=   None    Shift=    0.000
 RMSDP=1.85D-03 MaxDP=2.18D-01 DE=-6.04D-01 OVMax= 2.78D-01

 Cycle   5  Pass 1  IDiag  1:
 RMSU=  7.89D-04    CP:  9.64D-01  1.53D+00  1.52D-01  4.84D-01
 E= -4836.91210205676     Delta-E=       -1.563147758579 Rises=F Damp=F
 DIIS: error= 7.40D-03 at cycle   5 NSaved=   5.
 NSaved= 5 IEnMin= 5 EnMin= -4836.91210205676     IErMin= 5 ErrMin= 7.40D-03
 ErrMax= 7.40D-03  0.00D+00 EMaxC= 1.00D-01 BMatC= 6.80D-02 BMatP= 2.90D-01
 IDIUse=3 WtCom= 9.26D-01 WtEn= 7.40D-02
 Coeff-Com: -0.586D+00 0.805D+00 0.469D-01-0.692D-01 0.803D+00
 Coeff-En:   0.000D+00 0.000D+00 0.000D+00 0.000D+00 0.100D+01
 Coeff:     -0.542D+00 0.745D+00 0.434D-01-0.640D-01 0.818D+00
 Gap=     0.130 Goal=   None    Shift=    0.000
 RMSDP=5.29D-04 MaxDP=5.87D-02 DE=-1.56D+00 OVMax= 3.30D-02

 Cycle   6  Pass 1  IDiag  1:
 RMSU=  2.92D-04    CP:  9.60D-01  1.99D+00  1.78D-01  3.07D-01  9.31D-01
 E= -4836.97369916385     Delta-E=       -0.061597107089 Rises=F Damp=F
 DIIS: error= 2.24D-03 at cycle   6 NSaved=   6.
 NSaved= 6 IEnMin= 6 EnMin= -4836.97369916385     IErMin= 6 ErrMin= 2.24D-03
 ErrMax= 2.24D-03  0.00D+00 EMaxC= 1.00D-01 BMatC= 6.71D-03 BMatP= 6.80D-02
 IDIUse=3 WtCom= 9.78D-01 WtEn= 2.24D-02
 Coeff-Com: -0.341D+00 0.458D+00 0.223D-01-0.535D-01 0.488D+00 0.426D+00
 Coeff-En:   0.000D+00 0.000D+00 0.000D+00 0.000D+00 0.000D+00 0.100D+01
 Coeff:     -0.333D+00 0.448D+00 0.218D-01-0.523D-01 0.477D+00 0.439D+00
 Gap=     0.131 Goal=   None    Shift=    0.000
 RMSDP=1.74D-04 MaxDP=1.52D-02 DE=-6.16D-02 OVMax= 1.92D-02

 Cycle   7  Pass 1  IDiag  1:
 RMSU=  8.90D-05    CP:  9.60D-01  1.97D+00  1.67D-01  3.12D-01  9.72D-01
                    CP:  5.18D-01
 E= -4836.97976120713     Delta-E=       -0.006062043276 Rises=F Damp=F
 DIIS: error= 9.44D-04 at cycle   7 NSaved=   7.
 NSaved= 7 IEnMin= 7 EnMin= -4836.97976120713     IErMin= 7 ErrMin= 9.44D-04
 ErrMax= 9.44D-04  0.00D+00 EMaxC= 1.00D-01 BMatC= 7.59D-04 BMatP= 6.71D-03
 IDIUse=3 WtCom= 9.91D-01 WtEn= 9.44D-03
 Coeff-Com: -0.925D-01 0.119D+00 0.684D-02-0.228D-01 0.136D+00 0.235D+00
 Coeff-Com:  0.619D+00
 Coeff-En:   0.000D+00 0.000D+00 0.000D+00 0.000D+00 0.000D+00 0.000D+00
 Coeff-En:   0.100D+01
 Coeff:     -0.916D-01 0.117D+00 0.678D-02-0.225D-01 0.135D+00 0.233D+00
 Coeff:      0.622D+00
 Gap=     0.131 Goal=   None    Shift=    0.000
 RMSDP=5.16D-05 MaxDP=4.06D-03 DE=-6.06D-03 OVMax= 6.44D-03

 Cycle   8  Pass 1  IDiag  1:
 RMSU=  3.50D-05    CP:  9.60D-01  1.96D+00  1.65D-01  3.16D-01  9.75D-01
                    CP:  5.96D-01  6.80D-01
 E= -4836.98027842768     Delta-E=       -0.000517220557 Rises=F Damp=F
 DIIS: error= 5.03D-04 at cycle   8 NSaved=   8.
 NSaved= 8 IEnMin= 8 EnMin= -4836.98027842768     IErMin= 8 ErrMin= 5.03D-04
 ErrMax= 5.03D-04  0.00D+00 EMaxC= 1.00D-01 BMatC= 2.27D-04 BMatP= 7.59D-04
 IDIUse=3 WtCom= 9.95D-01 WtEn= 5.03D-03
 Coeff-Com:  0.146D-01-0.232D-01 0.103D-02-0.550D-02-0.222D-01 0.468D-01
 Coeff-Com:  0.374D+00 0.615D+00
 Coeff-En:   0.000D+00 0.000D+00 0.000D+00 0.000D+00 0.000D+00 0.000D+00
 Coeff-En:   0.505D-01 0.949D+00
 Coeff:      0.145D-01-0.231D-01 0.103D-02-0.548D-02-0.221D-01 0.465D-01
 Coeff:      0.372D+00 0.617D+00
 Gap=     0.131 Goal=   None    Shift=    0.000
 RMSDP=2.09D-05 MaxDP=1.57D-03 DE=-5.17D-04 OVMax= 3.25D-03

 Cycle   9  Pass 1  IDiag  1:
 RMSU=  1.55D-05    CP:  9.60D-01  1.96D+00  1.65D-01  3.15D-01  9.80D-01
                    CP:  5.96D-01  7.87D-01  7.41D-01
 E= -4836.98045343306     Delta-E=       -0.000175005380 Rises=F Damp=F
 DIIS: error= 1.80D-04 at cycle   9 NSaved=   9.
 NSaved= 9 IEnMin= 9 EnMin= -4836.98045343306     IErMin= 9 ErrMin= 1.80D-04
 ErrMax= 1.80D-04  0.00D+00 EMaxC= 1.00D-01 BMatC= 2.24D-05 BMatP= 2.27D-04
 IDIUse=3 WtCom= 9.98D-01 WtEn= 1.80D-03
 Coeff-Com:  0.154D-01-0.218D-01 0.332D-03-0.174D-02-0.245D-01 0.151D-02
 Coeff-Com:  0.131D+00 0.315D+00 0.584D+00
 Coeff-En:   0.000D+00 0.000D+00 0.000D+00 0.000D+00 0.000D+00 0.000D+00
 Coeff-En:   0.000D+00 0.000D+00 0.100D+01
 Coeff:      0.154D-01-0.217D-01 0.331D-03-0.173D-02-0.244D-01 0.151D-02
 Coeff:      0.131D+00 0.315D+00 0.585D+00
 Gap=     0.131 Goal=   None    Shift=    0.000
 RMSDP=8.93D-06 MaxDP=7.60D-04 DE=-1.75D-04 OVMax= 1.17D-03

 Cycle  10  Pass 1  IDiag  1:
 RMSU=  7.33D-06    CP:  9.60D-01  1.96D+00  1.65D-01  3.14D-01  9.80D-01
                    CP:  5.99D-01  7.88D-01  8.24D-01  7.52D-01
 E= -4836.98046899039     Delta-E=       -0.000015557327 Rises=F Damp=F
 DIIS: error= 5.90D-05 at cycle  10 NSaved=  10.
 NSaved=10 IEnMin=10 EnMin= -4836.98046899039     IErMin=10 ErrMin= 5.90D-05
 ErrMax= 5.90D-05  0.00D+00 EMaxC= 1.00D-01 BMatC= 4.04D-06 BMatP= 2.24D-05
 IDIUse=1 WtCom= 1.00D+00 WtEn= 0.00D+00
 Coeff-Com:  0.766D-02-0.102D-01 0.498D-04-0.164D-03-0.123D-01-0.929D-02
 Coeff-Com:  0.705D-02 0.762D-01 0.404D+00 0.537D+00
 Coeff:      0.766D-02-0.102D-01 0.498D-04-0.164D-03-0.123D-01-0.929D-02
 Coeff:      0.705D-02 0.762D-01 0.404D+00 0.537D+00
 Gap=     0.131 Goal=   None    Shift=    0.000
 RMSDP=4.04D-06 MaxDP=3.64D-04 DE=-1.56D-05 OVMax= 4.87D-04

 Cycle  11  Pass 1  IDiag  1:
 RMSU=  2.16D-06    CP:  9.60D-01  1.96D+00  1.65D-01  3.14D-01  9.80D-01
                    CP:  6.00D-01  7.91D-01  8.26D-01  8.89D-01  6.48D-01
 E= -4836.98047291763     Delta-E=       -0.000003927244 Rises=F Damp=F
 DIIS: error= 1.31D-05 at cycle  11 NSaved=  11.
 NSaved=11 IEnMin=11 EnMin= -4836.98047291763     IErMin=11 ErrMin= 1.31D-05
 ErrMax= 1.31D-05  0.00D+00 EMaxC= 1.00D-01 BMatC= 2.59D-07 BMatP= 4.04D-06
 IDIUse=1 WtCom= 1.00D+00 WtEn= 0.00D+00
 Coeff-Com:  0.245D-02-0.313D-02-0.319D-04 0.650D-04-0.387D-02-0.457D-02
 Coeff-Com: -0.856D-02 0.812D-02 0.164D+00 0.300D+00 0.545D+00
 Coeff:      0.245D-02-0.313D-02-0.319D-04 0.650D-04-0.387D-02-0.457D-02
 Coeff:     -0.856D-02 0.812D-02 0.164D+00 0.300D+00 0.545D+00
 Gap=     0.131 Goal=   None    Shift=    0.000
 RMSDP=1.05D-06 MaxDP=9.63D-05 DE=-3.93D-06 OVMax= 1.22D-04

 Cycle  12  Pass 1  IDiag  1:
 RMSU=  7.77D-07    CP:  9.60D-01  1.96D+00  1.65D-01  3.14D-01  9.80D-01
                    CP:  6.00D-01  7.93D-01  8.29D-01  8.95D-01  6.96D-01
                    CP:  7.50D-01
 E= -4836.98047317292     Delta-E=       -0.000000255286 Rises=F Damp=F
 DIIS: error= 9.08D-06 at cycle  12 NSaved=  12.
 NSaved=12 IEnMin=12 EnMin= -4836.98047317292     IErMin=12 ErrMin= 9.08D-06
 ErrMax= 9.08D-06  0.00D+00 EMaxC= 1.00D-01 BMatC= 5.63D-08 BMatP= 2.59D-07
 IDIUse=1 WtCom= 1.00D+00 WtEn= 0.00D+00
 Coeff-Com:  0.473D-03-0.550D-03-0.371D-04 0.517D-04-0.701D-03-0.127D-02
 Coeff-Com: -0.485D-02-0.295D-02 0.534D-01 0.117D+00 0.294D+00 0.546D+00
 Coeff:      0.473D-03-0.550D-03-0.371D-04 0.517D-04-0.701D-03-0.127D-02
 Coeff:     -0.485D-02-0.295D-02 0.534D-01 0.117D+00 0.294D+00 0.546D+00
 Gap=     0.131 Goal=   None    Shift=    0.000
 RMSDP=4.24D-07 MaxDP=3.59D-05 DE=-2.55D-07 OVMax= 8.23D-05

 Cycle  13  Pass 1  IDiag  1:
 RMSU=  3.30D-07    CP:  9.60D-01  1.96D+00  1.65D-01  3.14D-01  9.80D-01
                    CP:  6.00D-01  7.93D-01  8.30D-01  9.00D-01  7.02D-01
                    CP:  8.29D-01  1.03D+00
 E= -4836.98047322522     Delta-E=       -0.000000052300 Rises=F Damp=F
 DIIS: error= 4.70D-06 at cycle  13 NSaved=  13.
 NSaved=13 IEnMin=13 EnMin= -4836.98047322522     IErMin=13 ErrMin= 4.70D-06
 ErrMax= 4.70D-06  0.00D+00 EMaxC= 1.00D-01 BMatC= 1.28D-08 BMatP= 5.63D-08
 IDIUse=1 WtCom= 1.00D+00 WtEn= 0.00D+00
 Coeff-Com: -0.321D-03 0.430D-03-0.215D-04 0.175D-04 0.562D-03 0.545D-03
 Coeff-Com:  0.133D-03-0.221D-02-0.839D-02-0.903D-02 0.676D-02 0.228D+00
 Coeff-Com:  0.783D+00
 Coeff:     -0.321D-03 0.430D-03-0.215D-04 0.175D-04 0.562D-03 0.545D-03
 Coeff:      0.133D-03-0.221D-02-0.839D-02-0.903D-02 0.676D-02 0.228D+00
 Coeff:      0.783D+00
 Gap=     0.131 Goal=   None    Shift=    0.000
 RMSDP=4.07D-07 MaxDP=4.07D-05 DE=-5.23D-08 OVMax= 9.29D-05

 Cycle  14  Pass 1  IDiag  1:
 RMSU=  1.74D-07    CP:  9.60D-01  1.96D+00  1.65D-01  3.14D-01  9.80D-01
                    CP:  6.00D-01  7.93D-01  8.30D-01  9.05D-01  7.15D-01
                    CP:  8.89D-01  1.31D+00  1.24D+00
 E= -4836.98047324680     Delta-E=       -0.000000021584 Rises=F Damp=F
 DIIS: error= 2.54D-06 at cycle  14 NSaved=  14.
 NSaved=14 IEnMin=14 EnMin= -4836.98047324680     IErMin=14 ErrMin= 2.54D-06
 ErrMax= 2.54D-06  0.00D+00 EMaxC= 1.00D-01 BMatC= 1.89D-09 BMatP= 1.28D-08
 IDIUse=1 WtCom= 1.00D+00 WtEn= 0.00D+00
 Coeff-Com: -0.270D-03 0.337D-03-0.406D-05-0.180D-05 0.421D-03 0.577D-03
 Coeff-Com:  0.151D-02 0.158D-03-0.190D-01-0.401D-01-0.965D-01-0.787D-01
 Coeff-Com:  0.369D+00 0.862D+00
 Coeff:     -0.270D-03 0.337D-03-0.406D-05-0.180D-05 0.421D-03 0.577D-03
 Coeff:      0.151D-02 0.158D-03-0.190D-01-0.401D-01-0.965D-01-0.787D-01
 Coeff:      0.369D+00 0.862D+00
 Gap=     0.131 Goal=   None    Shift=    0.000
 RMSDP=3.01D-07 MaxDP=3.68D-05 DE=-2.16D-08 OVMax= 8.52D-05

 Cycle  15  Pass 1  IDiag  1:
 RMSU=  1.00D-07    CP:  9.60D-01  1.96D+00  1.65D-01  3.14D-01  9.80D-01
                    CP:  6.00D-01  7.93D-01  8.31D-01  9.08D-01  7.23D-01
                    CP:  9.39D-01  1.52D+00  1.69D+00  1.34D+00
 E= -4836.98047325529     Delta-E=       -0.000000008493 Rises=F Damp=F
 DIIS: error= 1.23D-06 at cycle  15 NSaved=  15.
 NSaved=15 IEnMin=15 EnMin= -4836.98047325529     IErMin=15 ErrMin= 1.23D-06
 ErrMax= 1.23D-06  0.00D+00 EMaxC= 1.00D-01 BMatC= 5.74D-10 BMatP= 1.89D-09
 IDIUse=1 WtCom= 1.00D+00 WtEn= 0.00D+00
 Coeff-Com: -0.575D-04 0.644D-04 0.559D-05-0.756D-05 0.529D-04 0.126D-03
 Coeff-Com:  0.716D-03 0.611D-03-0.887D-02-0.219D-01-0.619D-01-0.123D+00
 Coeff-Com: -0.585D-01 0.506D+00 0.766D+00
 Coeff:     -0.575D-04 0.644D-04 0.559D-05-0.756D-05 0.529D-04 0.126D-03
 Coeff:      0.716D-03 0.611D-03-0.887D-02-0.219D-01-0.619D-01-0.123D+00
 Coeff:     -0.585D-01 0.506D+00 0.766D+00
 Gap=     0.131 Goal=   None    Shift=    0.000
 RMSDP=1.85D-07 MaxDP=2.37D-05 DE=-8.49D-09 OVMax= 5.56D-05

 Cycle  16  Pass 1  IDiag  1:
 RMSU=  4.98D-08    CP:  9.60D-01  1.96D+00  1.65D-01  3.14D-01  9.80D-01
                    CP:  6.00D-01  7.93D-01  8.32D-01  9.10D-01  7.26D-01
                    CP:  9.64D-01  1.67D+00  1.97D+00  1.75D+00  1.15D+00
 E= -4836.98047325825     Delta-E=       -0.000000002956 Rises=F Damp=F
 DIIS: error= 7.41D-07 at cycle  16 NSaved=  16.
 NSaved=16 IEnMin=16 EnMin= -4836.98047325825     IErMin=16 ErrMin= 7.41D-07
 ErrMax= 7.41D-07  0.00D+00 EMaxC= 1.00D-01 BMatC= 3.28D-10 BMatP= 5.74D-10
 IDIUse=1 WtCom= 1.00D+00 WtEn= 0.00D+00
 Coeff-Com:  0.142D-05-0.506D-05 0.538D-05-0.507D-05-0.215D-04-0.184D-04
 Coeff-Com:  0.866D-04 0.880D-04-0.222D-02-0.578D-02-0.158D-01-0.414D-01
 Coeff-Com: -0.785D-01 0.940D-01 0.373D+00 0.677D+00
 Coeff:      0.142D-05-0.506D-05 0.538D-05-0.507D-05-0.215D-04-0.184D-04
 Coeff:      0.866D-04 0.880D-04-0.222D-02-0.578D-02-0.158D-01-0.414D-01
 Coeff:     -0.785D-01 0.940D-01 0.373D+00 0.677D+00
 Gap=     0.131 Goal=   None    Shift=    0.000
 RMSDP=5.86D-08 MaxDP=6.61D-06 DE=-2.96D-09 OVMax= 1.69D-05

 Cycle  17  Pass 1  IDiag  1:
 RMSU=  2.25D-08    CP:  9.60D-01  1.96D+00  1.65D-01  3.14D-01  9.80D-01
                    CP:  6.00D-01  7.93D-01  8.32D-01  9.10D-01  7.27D-01
                    CP:  9.71D-01  1.70D+00  2.05D+00  1.87D+00  1.36D+00
                    CP:  1.09D+00
 E= -4836.98047325843     Delta-E=       -0.000000000182 Rises=F Damp=F
 DIIS: error= 4.46D-07 at cycle  17 NSaved=  17.
 NSaved=17 IEnMin=17 EnMin= -4836.98047325843     IErMin=17 ErrMin= 4.46D-07
 ErrMax= 4.46D-07  0.00D+00 EMaxC= 1.00D-01 BMatC= 1.08D-10 BMatP= 3.28D-10
 IDIUse=1 WtCom= 1.00D+00 WtEn= 0.00D+00
 Coeff-Com:  0.102D-04-0.137D-04 0.305D-05-0.201D-05-0.153D-04-0.283D-04
 Coeff-Com: -0.868D-04-0.144D-03 0.241D-03 0.952D-03 0.527D-02 0.846D-02
 Coeff-Com: -0.265D-01-0.758D-01 0.169D-01 0.392D+00 0.679D+00
 Coeff:      0.102D-04-0.137D-04 0.305D-05-0.201D-05-0.153D-04-0.283D-04
 Coeff:     -0.868D-04-0.144D-03 0.241D-03 0.952D-03 0.527D-02 0.846D-02
 Coeff:     -0.265D-01-0.758D-01 0.169D-01 0.392D+00 0.679D+00
 Gap=     0.131 Goal=   None    Shift=    0.000
 RMSDP=3.16D-08 MaxDP=3.10D-06 DE=-1.82D-10 OVMax= 8.58D-06

 Cycle  18  Pass 1  IDiag  1:
 RMSU=  1.25D-08    CP:  9.60D-01  1.96D+00  1.65D-01  3.14D-01  9.80D-01
                    CP:  6.00D-01  7.93D-01  8.32D-01  9.10D-01  7.27D-01
                    CP:  9.73D-01  1.72D+00  2.08D+00  1.94D+00  1.46D+00
                    CP:  1.28D+00  8.66D-01
 E= -4836.98047325861     Delta-E=       -0.000000000178 Rises=F Damp=F
 DIIS: error= 1.58D-07 at cycle  18 NSaved=  18.
 NSaved=18 IEnMin=18 EnMin= -4836.98047325861     IErMin=18 ErrMin= 1.58D-07
 ErrMax= 1.58D-07  0.00D+00 EMaxC= 1.00D-01 BMatC= 1.69D-11 BMatP= 1.08D-10
 IDIUse=1 WtCom= 1.00D+00 WtEn= 0.00D+00
 Coeff-Com:  0.302D-05-0.387D-05 0.731D-06-0.135D-06 0.193D-05-0.171D-05
 Coeff-Com: -0.286D-04-0.842D-04 0.305D-03 0.122D-02 0.552D-02 0.141D-01
 Coeff-Com:  0.875D-02-0.566D-01-0.868D-01 0.424D-02 0.352D+00 0.757D+00
 Coeff:      0.302D-05-0.387D-05 0.731D-06-0.135D-06 0.193D-05-0.171D-05
 Coeff:     -0.286D-04-0.842D-04 0.305D-03 0.122D-02 0.552D-02 0.141D-01
 Coeff:      0.875D-02-0.566D-01-0.868D-01 0.424D-02 0.352D+00 0.757D+00
 Gap=     0.131 Goal=   None    Shift=    0.000
 RMSDP=1.71D-08 MaxDP=1.50D-06 DE=-1.78D-10 OVMax= 4.09D-06

 Cycle  19  Pass 1  IDiag  1:
 RMSU=  5.15D-09    CP:  9.60D-01  1.96D+00  1.65D-01  3.14D-01  9.80D-01
                    CP:  6.00D-01  7.93D-01  8.32D-01  9.10D-01  7.27D-01
                    CP:  9.74D-01  1.73D+00  2.10D+00  1.97D+00  1.53D+00
                    CP:  1.38D+00  1.06D+00  9.13D-01
 E= -4836.98047325857     Delta-E=        0.000000000040 Rises=F Damp=F
 DIIS: error= 2.74D-08 at cycle  19 NSaved=  19.
 NSaved=19 IEnMin=18 EnMin= -4836.98047325861     IErMin=19 ErrMin= 2.74D-08
 ErrMax= 2.74D-08  0.00D+00 EMaxC= 1.00D-01 BMatC= 1.50D-12 BMatP= 1.69D-11
 IDIUse=1 WtCom= 1.00D+00 WtEn= 0.00D+00
 Coeff-Com: -0.111D-05 0.163D-05 0.807D-07 0.371D-07 0.518D-05 0.621D-05
 Coeff-Com:  0.698D-05-0.226D-04 0.278D-04 0.336D-03 0.190D-02 0.604D-02
 Coeff-Com:  0.853D-02-0.178D-01-0.475D-01-0.580D-01 0.917D-01 0.425D+00
 Coeff-Com:  0.589D+00
 Coeff:     -0.111D-05 0.163D-05 0.807D-07 0.371D-07 0.518D-05 0.621D-05
 Coeff:      0.698D-05-0.226D-04 0.278D-04 0.336D-03 0.190D-02 0.604D-02
 Coeff:      0.853D-02-0.178D-01-0.475D-01-0.580D-01 0.917D-01 0.425D+00
 Coeff:      0.589D+00
 Gap=     0.131 Goal=   None    Shift=    0.000
 RMSDP=4.20D-09 MaxDP=3.43D-07 DE= 4.00D-11 OVMax= 8.76D-07

 SCF Done:  E(RPBE1PBE) =  -4836.98047326     A.U. after   19 cycles
            NFock= 19  Conv=0.42D-08     -V/T= 2.0055
 KE= 4.810374577078D+03 PE=-3.302680523795D+04 EE= 1.256859198046D+04
 Leave Link  502 at Fri Sep 29 19:35:07 2023, MaxMem=  4026531840 cpu:            5990.1 elap:             205.6
 (Enter /sw/arch/RHEL8/EB_production/2022/software/Gaussian/g16.c02/l508.exe)
 QCSCF skips out because SCF is already converged.
 Leave Link  508 at Fri Sep 29 19:35:07 2023, MaxMem=  4026531840 cpu:               0.5 elap:               0.0
 (Enter /sw/arch/RHEL8/EB_production/2022/software/Gaussian/g16.c02/l601.exe)
 Copying SCF densities to generalized density rwf, IOpCl= 0 IROHF=0.

 **********************************************************************

            Population analysis using the SCF Density.

 **********************************************************************

 Alpha  occ. eigenvalues -- -256.36361 -77.21490 -77.18869 -30.13841 -25.98682
 Alpha  occ. eigenvalues --  -25.96821 -25.96765 -24.82233 -24.81913 -24.81723
 Alpha  occ. eigenvalues --  -24.81674 -24.81602 -24.81523 -24.81365 -24.81277
 Alpha  occ. eigenvalues --  -24.81248 -24.81217 -24.80888 -24.80418 -10.49198
 Alpha  occ. eigenvalues --  -10.49134 -10.48762 -10.48432 -10.28551 -10.28538
 Alpha  occ. eigenvalues --  -10.28220 -10.27843 -10.27795 -10.27727 -10.27677
 Alpha  occ. eigenvalues --  -10.27654 -10.27327 -10.27111 -10.27074 -10.26976
 Alpha  occ. eigenvalues --  -10.26726 -10.26155 -10.25989 -10.25642 -10.25540
 Alpha  occ. eigenvalues --  -10.25455 -10.25162 -10.25115 -10.25081 -10.24982
 Alpha  occ. eigenvalues --  -10.24854 -10.24815 -10.24757 -10.24621 -10.24486
 Alpha  occ. eigenvalues --  -10.24306 -10.24186 -10.23717 -10.23580 -10.23328
 Alpha  occ. eigenvalues --  -10.23266 -10.22919 -10.22818 -10.22782 -10.22776
 Alpha  occ. eigenvalues --  -10.22684 -10.22533 -10.22505  -6.62475  -6.59923
 Alpha  occ. eigenvalues --   -4.76538  -4.76506  -4.76000  -4.73991  -4.73960
 Alpha  occ. eigenvalues --   -4.73422  -3.47022  -2.26000  -2.21294  -2.21196
 Alpha  occ. eigenvalues --   -1.34982  -1.34960  -1.34627  -1.34256  -1.25749
 Alpha  occ. eigenvalues --   -1.25622  -1.25162  -1.25060  -1.25059  -1.24838
 Alpha  occ. eigenvalues --   -1.24773  -1.24108  -0.93534  -0.92746  -0.91846
 Alpha  occ. eigenvalues --   -0.91411  -0.88515  -0.87848  -0.84089  -0.83284
 Alpha  occ. eigenvalues --   -0.83065  -0.82518  -0.80847  -0.80270  -0.79933
 Alpha  occ. eigenvalues --   -0.78749  -0.77437  -0.75762  -0.74176  -0.73963
 Alpha  occ. eigenvalues --   -0.73852  -0.73491  -0.73270  -0.73120  -0.72566
 Alpha  occ. eigenvalues --   -0.70914  -0.70499  -0.69709  -0.69416  -0.69264
 Alpha  occ. eigenvalues --   -0.67391  -0.67298  -0.66877  -0.66574  -0.65423
 Alpha  occ. eigenvalues --   -0.63432  -0.62954  -0.62866  -0.62589  -0.62471
 Alpha  occ. eigenvalues --   -0.62430  -0.62231  -0.62075  -0.61736  -0.60860
 Alpha  occ. eigenvalues --   -0.60705  -0.58933  -0.58860  -0.58524  -0.57694
 Alpha  occ. eigenvalues --   -0.56711  -0.56662  -0.56507  -0.55897  -0.55794
 Alpha  occ. eigenvalues --   -0.55417  -0.54286  -0.53586  -0.53498  -0.52218
 Alpha  occ. eigenvalues --   -0.52132  -0.51509  -0.51120  -0.50554  -0.50028
 Alpha  occ. eigenvalues --   -0.49962  -0.49800  -0.49768  -0.49573  -0.49510
 Alpha  occ. eigenvalues --   -0.49508  -0.49293  -0.49074  -0.48819  -0.47109
 Alpha  occ. eigenvalues --   -0.46682  -0.46434  -0.46343  -0.46145  -0.45821
 Alpha  occ. eigenvalues --   -0.45610  -0.45502  -0.45293  -0.45146  -0.44979
 Alpha  occ. eigenvalues --   -0.44562  -0.44173  -0.44058  -0.43966  -0.43899
 Alpha  occ. eigenvalues --   -0.43851  -0.43724  -0.43686  -0.43620  -0.43600
 Alpha  occ. eigenvalues --   -0.43467  -0.43298  -0.43226  -0.43027  -0.43014
 Alpha  occ. eigenvalues --   -0.42830  -0.42729  -0.42665  -0.42560  -0.42084
 Alpha  occ. eigenvalues --   -0.41924  -0.41833  -0.41271  -0.41259  -0.41014
 Alpha  occ. eigenvalues --   -0.40933  -0.40809  -0.40413  -0.40265  -0.39581
 Alpha  occ. eigenvalues --   -0.39171  -0.38986  -0.38880  -0.38689  -0.38485
 Alpha  occ. eigenvalues --   -0.38220  -0.37849  -0.37545  -0.36930  -0.36340
 Alpha  occ. eigenvalues --   -0.36054  -0.35591  -0.35298  -0.33684  -0.32912
 Alpha  occ. eigenvalues --   -0.31570  -0.31448  -0.30862  -0.30035  -0.29573
 Alpha  occ. eigenvalues --   -0.29410  -0.27952  -0.27539  -0.27115  -0.26321
 Alpha  occ. eigenvalues --   -0.26014  -0.25605  -0.25101  -0.24624  -0.23138
 Alpha  occ. eigenvalues --   -0.23110  -0.19112
 Alpha virt. eigenvalues --   -0.06022  -0.05528  -0.04749  -0.04093  -0.02845
 Alpha virt. eigenvalues --   -0.01655  -0.01303  -0.00616  -0.00398   0.00481
 Alpha virt. eigenvalues --    0.01764   0.03646   0.05087   0.05415   0.05654
 Alpha virt. eigenvalues --    0.06033   0.06392   0.06576   0.07398   0.07802
 Alpha virt. eigenvalues --    0.08252   0.08421   0.08646   0.08951   0.09290
 Alpha virt. eigenvalues --    0.09404   0.09761   0.10267   0.10594   0.10875
 Alpha virt. eigenvalues --    0.11220   0.11477   0.11544   0.12033   0.12229
 Alpha virt. eigenvalues --    0.12258   0.12388   0.12853   0.12957   0.13111
 Alpha virt. eigenvalues --    0.13340   0.13716   0.13912   0.14174   0.14520
 Alpha virt. eigenvalues --    0.14957   0.15058   0.15495   0.15649   0.15868
 Alpha virt. eigenvalues --    0.15958   0.16030   0.16202   0.16718   0.16852
 Alpha virt. eigenvalues --    0.17205   0.17429   0.17954   0.18048   0.18751
 Alpha virt. eigenvalues --    0.19129   0.19227   0.19297   0.20345   0.20438
 Alpha virt. eigenvalues --    0.21059   0.21246   0.21509   0.21851   0.22271
 Alpha virt. eigenvalues --    0.22328   0.22438   0.22503   0.22607   0.22955
 Alpha virt. eigenvalues --    0.23398   0.23624   0.24049   0.24691   0.25105
 Alpha virt. eigenvalues --    0.25196   0.25567   0.25800   0.26000   0.26264
 Alpha virt. eigenvalues --    0.26583   0.27042   0.27211   0.27312   0.28075
 Alpha virt. eigenvalues --    0.28482   0.28813   0.29154   0.29524   0.29727
 Alpha virt. eigenvalues --    0.30370   0.30504   0.31098   0.31368   0.31706
 Alpha virt. eigenvalues --    0.32087   0.32224   0.33216   0.33620   0.33820
 Alpha virt. eigenvalues --    0.33971   0.34607   0.34861   0.35341   0.35533
 Alpha virt. eigenvalues --    0.35589   0.35873   0.36363   0.36937   0.37361
 Alpha virt. eigenvalues --    0.37694   0.38007   0.38316   0.38417   0.38532
 Alpha virt. eigenvalues --    0.39101   0.39317   0.39740   0.40759   0.41216
 Alpha virt. eigenvalues --    0.41470   0.41933   0.42018   0.42369   0.42588
 Alpha virt. eigenvalues --    0.42726   0.43177   0.43660   0.44137   0.44349
 Alpha virt. eigenvalues --    0.44659   0.44818   0.45367   0.45473   0.45596
 Alpha virt. eigenvalues --    0.45896   0.46175   0.46458   0.46815   0.47052
 Alpha virt. eigenvalues --    0.47303   0.47488   0.47644   0.47837   0.48003
 Alpha virt. eigenvalues --    0.48653   0.49076   0.49352   0.49538   0.49650
 Alpha virt. eigenvalues --    0.50022   0.50381   0.50740   0.50816   0.51024
 Alpha virt. eigenvalues --    0.51232   0.51894   0.52424   0.53147   0.53309
 Alpha virt. eigenvalues --    0.53606   0.53846   0.54004   0.54550   0.54876
 Alpha virt. eigenvalues --    0.55677   0.56026   0.56392   0.57420   0.57696
 Alpha virt. eigenvalues --    0.58016   0.58381   0.59190   0.59382   0.60081
 Alpha virt. eigenvalues --    0.60859   0.60937   0.61246   0.61360   0.61827
 Alpha virt. eigenvalues --    0.62362   0.62696   0.62982   0.63130   0.63501
 Alpha virt. eigenvalues --    0.63687   0.64173   0.64434   0.64662   0.64823
 Alpha virt. eigenvalues --    0.64910   0.65317   0.65725   0.66086   0.66168
 Alpha virt. eigenvalues --    0.66336   0.66474   0.66870   0.67319   0.67437
 Alpha virt. eigenvalues --    0.67559   0.67692   0.67934   0.68031   0.68192
 Alpha virt. eigenvalues --    0.68644   0.68745   0.68871   0.69065   0.69379
 Alpha virt. eigenvalues --    0.69565   0.69589   0.69884   0.70138   0.70353
 Alpha virt. eigenvalues --    0.70569   0.70714   0.70863   0.71153   0.71228
 Alpha virt. eigenvalues --    0.71436   0.71620   0.71808   0.71915   0.72080
 Alpha virt. eigenvalues --    0.72383   0.72813   0.72941   0.73103   0.73334
 Alpha virt. eigenvalues --    0.73473   0.73685   0.73746   0.74093   0.74350
 Alpha virt. eigenvalues --    0.74598   0.75022   0.75370   0.75479   0.75532
 Alpha virt. eigenvalues --    0.75689   0.76078   0.76343   0.76638   0.76842
 Alpha virt. eigenvalues --    0.77174   0.77496   0.77615   0.77718   0.78084
 Alpha virt. eigenvalues --    0.78719   0.79033   0.79486   0.79776   0.80030
 Alpha virt. eigenvalues --    0.80217   0.80887   0.81031   0.81423   0.81926
 Alpha virt. eigenvalues --    0.82154   0.82456   0.83021   0.83101   0.83527
 Alpha virt. eigenvalues --    0.83690   0.84220   0.84372   0.84694   0.84849
 Alpha virt. eigenvalues --    0.85321   0.85501   0.86180   0.86726   0.87128
 Alpha virt. eigenvalues --    0.87474   0.87759   0.88067   0.88895   0.89244
 Alpha virt. eigenvalues --    0.89671   0.90280   0.90417   0.91567   0.92338
 Alpha virt. eigenvalues --    0.92648   0.93126   0.93624   0.94340   0.95229
 Alpha virt. eigenvalues --    0.95528   0.96040   0.97966   0.98360   0.98592
 Alpha virt. eigenvalues --    0.98722   0.99831   1.00295   1.00637   1.01768
 Alpha virt. eigenvalues --    1.02330   1.02602   1.03578   1.04097   1.04628
 Alpha virt. eigenvalues --    1.06601   1.07620   1.08095   1.08535   1.09122
 Alpha virt. eigenvalues --    1.09415   1.10402   1.10561   1.10632   1.10946
 Alpha virt. eigenvalues --    1.11401   1.11797   1.11970   1.12254   1.12376
 Alpha virt. eigenvalues --    1.12713   1.13097   1.13391   1.13737   1.14376
 Alpha virt. eigenvalues --    1.14585   1.15084   1.15377   1.16077   1.16477
 Alpha virt. eigenvalues --    1.16703   1.17599   1.18414   1.18920   1.19946
 Alpha virt. eigenvalues --    1.20269   1.20419   1.21105   1.21437   1.21880
 Alpha virt. eigenvalues --    1.22307   1.22377   1.23097   1.23231   1.23990
 Alpha virt. eigenvalues --    1.25106   1.25256   1.25553   1.26118   1.26790
 Alpha virt. eigenvalues --    1.27178   1.28473   1.29083   1.30436   1.30671
 Alpha virt. eigenvalues --    1.31354   1.31982   1.32594   1.33302   1.33731
 Alpha virt. eigenvalues --    1.34181   1.34539   1.34843   1.35360   1.35754
 Alpha virt. eigenvalues --    1.36478   1.36884   1.37249   1.37445   1.37723
 Alpha virt. eigenvalues --    1.37751   1.37884   1.38942   1.39151   1.39657
 Alpha virt. eigenvalues --    1.39830   1.39887   1.40345   1.40462   1.40937
 Alpha virt. eigenvalues --    1.41681   1.42375   1.42511   1.43155   1.44232
 Alpha virt. eigenvalues --    1.44951   1.45201   1.46165   1.46294   1.46542
 Alpha virt. eigenvalues --    1.47401   1.48276   1.48595   1.49389   1.49621
 Alpha virt. eigenvalues --    1.49962   1.50266   1.50450   1.50568   1.51035
 Alpha virt. eigenvalues --    1.51380   1.51803   1.51862   1.52241   1.52680
 Alpha virt. eigenvalues --    1.54434   1.55547   1.55897   1.57548   1.58610
 Alpha virt. eigenvalues --    1.59755   1.60839   1.61436   1.63550   1.63965
 Alpha virt. eigenvalues --    1.64414   1.65024   1.65185   1.66090   1.67070
 Alpha virt. eigenvalues --    1.67753   1.70117   1.71327   1.71581   1.72079
 Alpha virt. eigenvalues --    1.72541   1.73221   1.73570   1.74212   1.74457
 Alpha virt. eigenvalues --    1.74826   1.75300   1.75592   1.76407   1.77811
 Alpha virt. eigenvalues --    1.78227   1.78561   1.79461   1.80142   1.80328
 Alpha virt. eigenvalues --    1.80568   1.81067   1.81779   1.82053   1.82345
 Alpha virt. eigenvalues --    1.82797   1.84385   1.84551   1.84708   1.86517
 Alpha virt. eigenvalues --    1.87280   1.87594   1.88037   1.88819   1.88881
 Alpha virt. eigenvalues --    1.89150   1.89490   1.90136   1.90184   1.90346
 Alpha virt. eigenvalues --    1.90558   1.90688   1.90817   1.90929   1.91109
 Alpha virt. eigenvalues --    1.91215   1.91908   1.92713   1.93208   1.93702
 Alpha virt. eigenvalues --    1.94313   1.94799   1.95089   1.95749   1.95940
 Alpha virt. eigenvalues --    1.96278   1.96549   1.96957   1.97242   1.97475
 Alpha virt. eigenvalues --    1.98636   1.98859   1.99185   1.99667   1.99979
 Alpha virt. eigenvalues --    2.00792   2.01611   2.02041   2.02693   2.03013
 Alpha virt. eigenvalues --    2.03349   2.04082   2.04542   2.04782   2.04890
 Alpha virt. eigenvalues --    2.05894   2.06257   2.07386   2.07623   2.07986
 Alpha virt. eigenvalues --    2.08501   2.08892   2.09427   2.10195   2.10357
 Alpha virt. eigenvalues --    2.10856   2.11955   2.12719   2.13450   2.13779
 Alpha virt. eigenvalues --    2.14377   2.15019   2.15125   2.16230   2.16889
 Alpha virt. eigenvalues --    2.17111   2.17644   2.18449   2.19794   2.20562
 Alpha virt. eigenvalues --    2.21081   2.21380   2.21749   2.22283   2.22639
 Alpha virt. eigenvalues --    2.23074   2.23244   2.23714   2.23955   2.24394
 Alpha virt. eigenvalues --    2.24702   2.25088   2.25800   2.26829   2.27929
 Alpha virt. eigenvalues --    2.28295   2.28519   2.28717   2.28783   2.29511
 Alpha virt. eigenvalues --    2.29591   2.29860   2.30161   2.30504   2.30793
 Alpha virt. eigenvalues --    2.31273   2.31478   2.31987   2.32482   2.33899
 Alpha virt. eigenvalues --    2.34284   2.35092   2.35436   2.35817   2.35860
 Alpha virt. eigenvalues --    2.36006   2.38243   2.43037   2.44216   2.44513
 Alpha virt. eigenvalues --    2.46852   2.47462   2.48010   2.48238   2.48794
 Alpha virt. eigenvalues --    2.49392   2.50255   2.50564   2.53243   2.53359
 Alpha virt. eigenvalues --    2.53874   2.55551   2.55999   2.57725   2.58891
 Alpha virt. eigenvalues --    2.59768   2.60282   2.60923   2.61910   2.62427
 Alpha virt. eigenvalues --    2.63164   2.65855   2.66047   2.66427   2.67043
 Alpha virt. eigenvalues --    2.68100   2.68241   2.69415   2.70436   2.72431
 Alpha virt. eigenvalues --    2.72900   2.73114   2.74782   2.75529   2.75854
 Alpha virt. eigenvalues --    2.76049   2.76494   2.76690   2.78116   2.78437
 Alpha virt. eigenvalues --    2.78544   2.79535   2.79578   2.83548   2.84960
 Alpha virt. eigenvalues --    2.87644   2.87843   2.90494   2.92988   2.95293
 Alpha virt. eigenvalues --    2.97153   2.98356   3.00112   3.00518   3.00673
 Alpha virt. eigenvalues --    3.00953   3.02131   3.03571   3.03720   3.03948
 Alpha virt. eigenvalues --    3.04143   3.04248   3.04358   3.04593   3.04781
 Alpha virt. eigenvalues --    3.04970   3.05083   3.05544   3.05659   3.05784
 Alpha virt. eigenvalues --    3.06226   3.06314   3.07186   3.07208   3.07361
 Alpha virt. eigenvalues --    3.07874   3.08391   3.08519   3.08844   3.10851
 Alpha virt. eigenvalues --    3.11042   3.14813   3.15570   3.18023   3.18760
 Alpha virt. eigenvalues --    3.18779   3.19093   3.23465   3.23965   3.27617
 Alpha virt. eigenvalues --    3.28646   3.31339   3.32226   3.37680   3.37988
 Alpha virt. eigenvalues --    3.43223   3.43859   3.44854   3.45738   3.54830
 Alpha virt. eigenvalues --    3.55059   3.55410   3.55737   3.59856   3.60475
 Alpha virt. eigenvalues --    3.60623   3.61146   3.68736   3.69124   3.69258
 Alpha virt. eigenvalues --    3.69789   3.85457   3.86002   3.86018   3.87087
 Alpha virt. eigenvalues --    3.88177   3.89111   3.89238   3.90525
          Condensed to atoms (all electrons):
 Mulliken charges:
               1
     1  P    0.436762
     2  C   -0.097769
     3  C   -0.135870
     4  C   -0.103730
     5  C   -0.134046
     6  C   -0.117135
     7  C   -0.140227
     8  C   -0.127211
     9  C   -0.142801
    10  C   -0.097939
    11  C   -0.149418
    12  C   -0.096305
    13  C   -0.152755
    14  P    0.313510
    15  C   -0.308015
    16  C   -0.304929
    17  C   -0.199800
    18  C   -0.022991
    19  C   -0.100763
    20  C   -0.017110
    21  C   -0.104692
    22  H    0.128121
    23  H    0.136345
    24  H    0.169940
    25  H    0.121106
    26  H    0.159808
    27  H    0.134642
    28  H    0.165187
    29  H    0.138825
    30  H    0.114531
    31  C   -0.181671
    32  C    0.012348
    33  C   -0.165123
    34  C   -0.154652
    35  C   -0.161698
    36  C    0.013460
    37  H    0.089020
    38  H    0.092352
    39  C   -0.186462
    40  C    0.027312
    41  C   -0.189463
    42  C   -0.067007
    43  C   -0.198228
    44  C    0.020359
    45  H    0.107680
    46  H    0.075885
    47  Fe  -0.221605
    48  C   -0.082109
    49  C   -0.065142
    50  C   -0.108497
    51  C   -0.097660
    52  C   -0.078190
    53  H    0.119062
    54  H    0.137655
    55  H    0.116941
    56  H    0.115915
    57  H    0.122786
    58  H    0.117304
    59  H    0.072434
    60  H    0.063903
    61  C   -0.289529
    62  H    0.138172
    63  H    0.125340
    64  H    0.144086
    65  C   -0.291597
    66  H    0.140653
    67  H    0.142685
    68  H    0.132007
    69  C   -0.292802
    70  H    0.132431
    71  H    0.145454
    72  H    0.130952
    73  C   -0.291226
    74  H    0.140679
    75  H    0.127404
    76  H    0.138987
    77  F   -0.178249
    78  C    0.619780
    79  F   -0.180486
    80  F   -0.162677
    81  F   -0.175284
    82  C    0.614477
    83  F   -0.169108
    84  F   -0.172871
    85  F   -0.174586
    86  C    0.629140
    87  F   -0.182727
    88  F   -0.172520
    89  F   -0.185156
    90  C    0.610881
    91  F   -0.167100
    92  F   -0.178531
    93  H    0.114007
    94  H    0.103770
    95  H    0.121364
 Sum of Mulliken charges =  -0.00000
 Mulliken charges with hydrogens summed into heavy atoms:
               1
     1  P    0.436762
     2  C   -0.097769
     3  C   -0.007749
     4  C   -0.103730
     5  C   -0.011260
     6  C   -0.117135
     7  C   -0.003882
     8  C   -0.127211
     9  C    0.027139
    10  C   -0.097939
    11  C   -0.032114
    12  C   -0.096305
    13  C   -0.031650
    14  P    0.313510
    15  C   -0.148208
    16  C    0.133725
    17  C   -0.199800
    18  C   -0.022991
    19  C    0.003007
    20  C    0.096897
    21  C    0.009840
    31  C   -0.109237
    32  C    0.012348
    33  C   -0.076103
    34  C   -0.154652
    35  C   -0.069346
    36  C    0.013460
    39  C   -0.122559
    40  C    0.027312
    41  C   -0.081782
    42  C   -0.067007
    43  C   -0.122342
    44  C    0.020359
    47  Fe  -0.221605
    48  C    0.036952
    49  C    0.056222
    50  C    0.029158
    51  C    0.019281
    52  C    0.037725
    61  C    0.118069
    65  C    0.123747
    69  C    0.116035
    73  C    0.115844
    77  F   -0.178249
    78  C    0.619780
    79  F   -0.180486
    80  F   -0.162677
    81  F   -0.175284
    82  C    0.614477
    83  F   -0.169108
    84  F   -0.172871
    85  F   -0.174586
    86  C    0.629140
    87  F   -0.182727
    88  F   -0.172520
    89  F   -0.185156
    90  C    0.610881
    91  F   -0.167100
    92  F   -0.178531
 Electronic spatial extent (au):  <R**2>=          42362.6688
 Charge=              0.0000 electrons
 Dipole moment (field-independent basis, Debye):
    X=             -1.4978    Y=             -3.9113    Z=              2.2483  Tot=              4.7536
 Quadrupole moment (field-independent basis, Debye-Ang):
   XX=           -354.1605   YY=           -361.4099   ZZ=           -360.0329
   XY=             -0.2819   XZ=              2.6525   YZ=             -1.6741
 Traceless Quadrupole moment (field-independent basis, Debye-Ang):
   XX=              4.3740   YY=             -2.8755   ZZ=             -1.4985
   XY=             -0.2819   XZ=              2.6525   YZ=             -1.6741
 Octapole moment (field-independent basis, Debye-Ang**2):
  XXX=            106.2063  YYY=           -433.1362  ZZZ=             63.9902  XYY=             32.8206
  XXY=           -147.4303  XXZ=             21.3308  XZZ=             48.9227  YZZ=           -134.4329
  YYZ=             31.0825  XYZ=            -48.2562
 Hexadecapole moment (field-independent basis, Debye-Ang**3):
 XXXX=         -21941.9444 YYYY=         -16540.5052 ZZZZ=         -14266.4754 XXXY=          -1832.9064
 XXXZ=           2523.3420 YYYX=          -2033.8947 YYYZ=          -1776.3076 ZZZX=           2373.8127
 ZZZY=          -1954.0284 XXYY=          -6432.6422 XXZZ=          -5929.5797 YYZZ=          -4977.7751
 XXYZ=           -494.1049 YYXZ=            926.9991 ZZXY=           -585.2601
 N-N= 1.081085820715D+04 E-N=-3.302680524367D+04  KE= 4.810374577078D+03
 No NMR shielding tensors so no spin-rotation constants.
 Leave Link  601 at Fri Sep 29 19:35:08 2023, MaxMem=  4026531840 cpu:               4.3 elap:               0.4
 (Enter /sw/arch/RHEL8/EB_production/2022/software/Gaussian/g16.c02/l607.exe)
 ******************************Gaussian NBO Version 3.1******************************
             N A T U R A L   A T O M I C   O R B I T A L   A N D
          N A T U R A L   B O N D   O R B I T A L   A N A L Y S I S
 ******************************Gaussian NBO Version 3.1******************************
       /RESON  / : Allow strongly delocalized NBO set

 Analyzing the SCF density

 Job title: Cisa                                                            

 Storage needed:   2545254 in NPA,   3368021 in NBO (4026484625 available)


 NATURAL POPULATIONS:  Natural atomic orbital occupancies 
                                                          
   NAO  Atom  No  lang   Type(AO)    Occupancy      Energy
 ----------------------------------------------------------
     1    P    1  S      Cor( 1S)     1.99999     -76.26591
     2    P    1  S      Cor( 2S)     1.99853      -7.34613
     3    P    1  S      Val( 3S)     1.26374      -0.40382
     4    P    1  S      Ryd( 4S)     0.00390       0.75558
     5    P    1  px     Cor( 2p)     1.99982      -4.75413
     6    P    1  px     Val( 3p)     1.23403      -0.10829
     7    P    1  px     Ryd( 4p)     0.00583       0.88220
     8    P    1  py     Cor( 2p)     1.99977      -4.75563
     9    P    1  py     Val( 3p)     0.68712      -0.04980
    10    P    1  py     Ryd( 4p)     0.00487       0.76012
    11    P    1  pz     Cor( 2p)     1.99975      -4.75510
    12    P    1  pz     Val( 3p)     0.87469      -0.07020
    13    P    1  pz     Ryd( 4p)     0.00619       0.78686
    14    P    1  dxy    Ryd( 3d)     0.00434       0.93291
    15    P    1  dxz    Ryd( 3d)     0.00485       1.06191
    16    P    1  dyz    Ryd( 3d)     0.00765       1.15184
    17    P    1  dx2y2  Ryd( 3d)     0.00512       1.13287
    18    P    1  dz2    Ryd( 3d)     0.00274       1.02148
 
    19    C    2  S      Cor( 1S)     1.99888     -10.14137
    20    C    2  S      Val( 2S)     0.93794      -0.20213
    21    C    2  S      Ryd( 3S)     0.00505       0.68592
    22    C    2  px     Val( 2p)     1.16601      -0.15205
    23    C    2  px     Ryd( 3p)     0.00822       0.96224
    24    C    2  py     Val( 2p)     1.04896      -0.14247
    25    C    2  py     Ryd( 3p)     0.00309       0.73425
    26    C    2  pz     Val( 2p)     1.14304      -0.13510
    27    C    2  pz     Ryd( 3p)     0.00929       0.91283
    28    C    2  dxy    Ryd( 3d)     0.00050       2.04063
    29    C    2  dxz    Ryd( 3d)     0.00105       2.17155
    30    C    2  dyz    Ryd( 3d)     0.00059       2.10498
    31    C    2  dx2y2  Ryd( 3d)     0.00081       2.10140
    32    C    2  dz2    Ryd( 3d)     0.00083       2.24025
 
    33    C    3  S      Cor( 1S)     1.99887     -10.13665
    34    C    3  S      Val( 2S)     0.92275      -0.15724
    35    C    3  S      Ryd( 3S)     0.00237       0.65450
    36    C    3  px     Val( 2p)     1.16716      -0.09975
    37    C    3  px     Ryd( 3p)     0.00738       0.94947
    38    C    3  py     Val( 2p)     0.98920      -0.13248
    39    C    3  py     Ryd( 3p)     0.00303       0.68820
    40    C    3  pz     Val( 2p)     1.07194      -0.08939
    41    C    3  pz     Ryd( 3p)     0.00463       0.74595
    42    C    3  dxy    Ryd( 3d)     0.00057       1.94097
    43    C    3  dxz    Ryd( 3d)     0.00069       2.29137
    44    C    3  dyz    Ryd( 3d)     0.00056       2.09034
    45    C    3  dx2y2  Ryd( 3d)     0.00053       2.06751
    46    C    3  dz2    Ryd( 3d)     0.00062       2.25841
 
    47    C    4  S      Cor( 1S)     1.99874     -10.14933
    48    C    4  S      Val( 2S)     0.88216      -0.16118
    49    C    4  S      Ryd( 3S)     0.00217       0.55418
    50    C    4  px     Val( 2p)     1.11311      -0.10523
    51    C    4  px     Ryd( 3p)     0.00417       0.87323
    52    C    4  py     Val( 2p)     1.05904      -0.14570
    53    C    4  py     Ryd( 3p)     0.00347       0.72664
    54    C    4  pz     Val( 2p)     1.09605      -0.13734
    55    C    4  pz     Ryd( 3p)     0.00598       0.99392
    56    C    4  dxy    Ryd( 3d)     0.00067       2.05534
    57    C    4  dxz    Ryd( 3d)     0.00066       2.36903
    58    C    4  dyz    Ryd( 3d)     0.00062       2.03170
    59    C    4  dx2y2  Ryd( 3d)     0.00063       2.16228
    60    C    4  dz2    Ryd( 3d)     0.00083       2.18615
 
    61    C    5  S      Cor( 1S)     1.99890     -10.14405
    62    C    5  S      Val( 2S)     0.92664      -0.16073
    63    C    5  S      Ryd( 3S)     0.00181       0.59169
    64    C    5  px     Val( 2p)     1.14786      -0.09939
    65    C    5  px     Ryd( 3p)     0.00602       0.88695
    66    C    5  py     Val( 2p)     0.97292      -0.13114
    67    C    5  py     Ryd( 3p)     0.00183       0.58089
    68    C    5  pz     Val( 2p)     1.11313      -0.09766
    69    C    5  pz     Ryd( 3p)     0.00528       0.81222
    70    C    5  dxy    Ryd( 3d)     0.00051       2.00972
    71    C    5  dxz    Ryd( 3d)     0.00075       2.23278
    72    C    5  dyz    Ryd( 3d)     0.00050       2.05467
    73    C    5  dx2y2  Ryd( 3d)     0.00063       2.08470
    74    C    5  dz2    Ryd( 3d)     0.00061       2.20777
 
    75    C    6  S      Cor( 1S)     1.99872     -10.14996
    76    C    6  S      Val( 2S)     0.88359      -0.16228
    77    C    6  S      Ryd( 3S)     0.00209       0.59335
    78    C    6  px     Val( 2p)     1.10116      -0.13272
    79    C    6  px     Ryd( 3p)     0.00586       0.99832
    80    C    6  py     Val( 2p)     1.06074      -0.14547
    81    C    6  py     Ryd( 3p)     0.00350       0.73722
    82    C    6  pz     Val( 2p)     1.10673      -0.10980
    83    C    6  pz     Ryd( 3p)     0.00429       0.87878
    84    C    6  dxy    Ryd( 3d)     0.00063       1.98571
    85    C    6  dxz    Ryd( 3d)     0.00076       2.35665
    86    C    6  dyz    Ryd( 3d)     0.00067       2.07150
    87    C    6  dx2y2  Ryd( 3d)     0.00064       2.14548
    88    C    6  dz2    Ryd( 3d)     0.00073       2.23335
 
    89    C    7  S      Cor( 1S)     1.99886     -10.13676
    90    C    7  S      Val( 2S)     0.92319      -0.15776
    91    C    7  S      Ryd( 3S)     0.00247       0.63319
    92    C    7  px     Val( 2p)     1.06661      -0.08377
    93    C    7  px     Ryd( 3p)     0.00450       0.73734
    94    C    7  py     Val( 2p)     0.99278      -0.13146
    95    C    7  py     Ryd( 3p)     0.00237       0.69660
    96    C    7  pz     Val( 2p)     1.17100      -0.10519
    97    C    7  pz     Ryd( 3p)     0.00708       0.95605
    98    C    7  dxy    Ryd( 3d)     0.00056       2.08319
    99    C    7  dxz    Ryd( 3d)     0.00069       2.32232
   100    C    7  dyz    Ryd( 3d)     0.00060       1.96480
   101    C    7  dx2y2  Ryd( 3d)     0.00052       2.17877
   102    C    7  dz2    Ryd( 3d)     0.00063       2.10747
 
   103    C    8  S      Cor( 1S)     1.99891     -10.13779
   104    C    8  S      Val( 2S)     0.93767      -0.19683
   105    C    8  S      Ryd( 3S)     0.00415       0.66451
   106    C    8  px     Val( 2p)     1.04375      -0.14518
   107    C    8  px     Ryd( 3p)     0.00223       0.70399
   108    C    8  py     Val( 2p)     1.17988      -0.14636
   109    C    8  py     Ryd( 3p)     0.00915       1.02366
   110    C    8  pz     Val( 2p)     1.14276      -0.12516
   111    C    8  pz     Ryd( 3p)     0.00648       0.93873
   112    C    8  dxy    Ryd( 3d)     0.00075       1.91296
   113    C    8  dxz    Ryd( 3d)     0.00072       1.94581
   114    C    8  dyz    Ryd( 3d)     0.00118       2.27110
   115    C    8  dx2y2  Ryd( 3d)     0.00063       2.18256
   116    C    8  dz2    Ryd( 3d)     0.00065       2.36704
 
   117    C    9  S      Cor( 1S)     1.99888     -10.12576
   118    C    9  S      Val( 2S)     0.91890      -0.14337
   119    C    9  S      Ryd( 3S)     0.00287       0.68587
   120    C    9  px     Val( 2p)     0.95811      -0.12565
   121    C    9  px     Ryd( 3p)     0.00255       0.69184
   122    C    9  py     Val( 2p)     1.18719      -0.08513
   123    C    9  py     Ryd( 3p)     0.00727       1.03948
   124    C    9  pz     Val( 2p)     1.09760      -0.07510
   125    C    9  pz     Ryd( 3p)     0.00545       0.82446
   126    C    9  dxy    Ryd( 3d)     0.00053       1.86572
   127    C    9  dxz    Ryd( 3d)     0.00053       1.95700
   128    C    9  dyz    Ryd( 3d)     0.00076       2.38374
   129    C    9  dx2y2  Ryd( 3d)     0.00060       2.16505
   130    C    9  dz2    Ryd( 3d)     0.00059       2.37830
 
   131    C   10  S      Cor( 1S)     1.99873     -10.14097
   132    C   10  S      Val( 2S)     0.88031      -0.15063
   133    C   10  S      Ryd( 3S)     0.00222       0.58580
   134    C   10  px     Val( 2p)     1.05289      -0.13816
   135    C   10  px     Ryd( 3p)     0.00305       0.68905
   136    C   10  py     Val( 2p)     1.11657      -0.09133
   137    C   10  py     Ryd( 3p)     0.00404       0.90275
   138    C   10  pz     Val( 2p)     1.09658      -0.12741
   139    C   10  pz     Ryd( 3p)     0.00647       1.06350
   140    C   10  dxy    Ryd( 3d)     0.00078       1.94388
   141    C   10  dxz    Ryd( 3d)     0.00045       1.92738
   142    C   10  dyz    Ryd( 3d)     0.00058       2.44682
   143    C   10  dx2y2  Ryd( 3d)     0.00056       2.26565
   144    C   10  dz2    Ryd( 3d)     0.00107       2.29090
 
   145    C   11  S      Cor( 1S)     1.99890     -10.13298
   146    C   11  S      Val( 2S)     0.92355      -0.14956
   147    C   11  S      Ryd( 3S)     0.00196       0.58582
   148    C   11  px     Val( 2p)     0.97179      -0.13244
   149    C   11  px     Ryd( 3p)     0.00169       0.56769
   150    C   11  py     Val( 2p)     1.16167      -0.08733
   151    C   11  py     Ryd( 3p)     0.00625       0.92709
   152    C   11  pz     Val( 2p)     1.11235      -0.07925
   153    C   11  pz     Ryd( 3p)     0.00551       0.81544
   154    C   11  dxy    Ryd( 3d)     0.00047       1.87599
   155    C   11  dxz    Ryd( 3d)     0.00059       1.92484
[...]
                                                    299(r),890(r),409(r),431(r)
                                                    888(r),578(r),424(r),585(r)
                                                    842(r),848(r),843(r),568(r)
                                                    850(r),404(r),434(r)
   200. LP*(   8)Fe  47                  0.20481     0.27434  203(r),202(r),188(r),191(r)
                                                    189(r),205(r),809(r),198(g)
                                                    572(r),563(r),891(r),418(r)
                                                    853(r),190(r),590(r),804(r)
                                                    254(r),843(r),606(r),806(r)
                                                    586(r),604(r),838(r),399(r)
                                                    414(r),436(r),807(r),887(r)
                                                    566(r),885(r),390(r),371(r)
                                                    387(r),892(r),849(r),839(r)
                                                    395(r),848(r),886(r),884(r)
                                                    889(r),250(r),397(r),561(r)
                                                    576(r),575(r),851(r),570(r)
                                                    842(r),404(r),192(r),852(r)
                                                    422(r)
   201. LP*(   9)Fe  47                  0.12969     0.21787  554(g),189(r),188(r),192(r)
                                                    190(r),191(r),205(r),206(r)
                                                    204(r),838(r),202(r),203(r)
                                                    843(r),809(r),807(r),395(r)
                                                    404(r),431(r),422(r),413(r)
                                                    416(r),829(r),594(r),407(r)
                                                    599(r),389(r),590(r),603(r)
                                                    418(r),585(r),425(r),424(r)
                                                    254(r),853(r),397(r),566(r)
                                                    576(r),854(r)
   553. RY*(   1)Fe  47                  0.00468     0.57807   
   554. RY*(   2)Fe  47                  0.00063     0.88159   
   555. RY*(   3)Fe  47                  0.00021     1.40004   
   556. RY*(   4)Fe  47                  0.00014     1.40836   
   557. RY*(   5)Fe  47                  0.00004     1.29698   
   558. RY*(   6)Fe  47                  0.00003     1.32256   
       -------------------------------
              Total Lewis   23.52254  ( 90.5143%)
        Valence non-Lewis    2.45937  (  9.4636%)
        Rydberg non-Lewis    0.00573  (  0.0221%)
       -------------------------------
            Total unit  2   25.98764  (100.0000%)
           Charge unit  2    0.01236
 
 Molecular unit  3  (C5H5)
    77. BD (   1) C  48 - C  49          1.96826    -0.65376  202(g),203(g),198(r),200(r)
                                                    197(r),892(v),889(v),201(r)
                                                    578(v),884(g),886(g),596(v)
                                                    885(g),887(g),595(v),196(r)
                                                    189(r),192(r),188(r),191(r)
                                                    190(r),389(r)
    78. BD (   1) C  48 - C  52          1.96805    -0.65360  202(g),206(g),198(r),199(r)
                                                    891(v),887(v),201(r),200(r)
                                                    197(r),196(r),569(v),587(v)
                                                    890(g),883(g),892(g),885(g)
                                                    586(v),189(r),188(r),192(r)
                                                    191(r),190(r)
    79. BD (   1) C  48 - H  53          1.98082    -0.54390  200(r),886(v),890(v),202(g)
                                                    198(r),199(r),884(g),883(g)
                                                    201(r),553(r),197(r)
    80. BD (   1) C  49 - C  50          1.96783    -0.65358  203(g),204(g),198(r),196(r)
                                                    199(r),885(v),891(v),200(r)
                                                    201(r),560(v),587(v),888(g)
                                                    889(g),883(g),887(g),586(v)
                                                    559(v),188(r),190(r),192(r)
                                                    189(r),191(r),397(r)
    81. BD (   1) C  49 - H  95          1.98059    -0.54253  200(r),888(v),884(v),203(g)
                                                    198(r),886(g),199(r),883(g)
                                                    201(r),579(v),553(r)
    82. BD (   1) C  50 - C  51          1.96673    -0.65011  198(r),205(g),204(g),197(r)
                                                    892(v),887(v),201(r),596(v)
                                                    199(r),890(g),886(g),889(g)
                                                    891(g),569(v),568(v),263(r)
                                                    188(r),200(r),189(r),191(r)
                                                    196(r),192(r),190(r),254(r)
                                                    272(r)
    83. BD (   1) C  50 - H  54          1.98061    -0.54179  199(r),890(v),883(v),198(r)
                                                    204(g),888(g),886(g),201(r)
                                                    588(v),553(r),254(r)
    84. BD (   1) C  51 - C  52          1.96783    -0.65367  198(r),206(g),205(g),885(v)
                                                    889(v),196(r),201(r),577(v)
                                                    560(v),888(g),884(g),891(g)
                                                    892(g),199(r),197(r),559(v)
                                                    200(r),188(r),189(r),192(r)
                                                    190(r),191(r),263(r),436(r)
    85. BD (   1) C  51 - H  55          1.97967    -0.54362  198(r),884(v),886(v),205(g)
                                                    200(r),201(r),888(g),890(g)
                                                    579(v),597(v),811(r),263(r)
                                                    553(r),197(r)
    86. BD (   1) C  52 - H  56          1.98067    -0.54437  199(r),888(v),883(v),198(r)
                                                    206(g),201(r),890(g),884(g)
                                                    553(r)
   161. CR (   1) C  48                  1.99866   -10.11664  198(r),200(r),202(g),201(r)
                                                    596(v),569(v),203(v),199(r)
                                                    206(v),892(v),887(v),604(v)
                                                    886(v),890(v),561(g),197(r)
                                                    554(r)
   162. CR (   1) C  49                  1.99867   -10.11581  198(r),200(r),203(g),560(v)
                                                    201(r),202(v),199(r),204(v)
                                                    889(v),577(v),885(v),806(v)
                                                    888(v),884(v),578(v),196(r)
                                                    554(r)
   163. CR (   1) C  50                  1.99869   -10.11326  198(r),204(g),199(r),201(r)
                                                    569(v),587(v),203(v),605(v)
                                                    205(v),891(v),887(v),883(v)
                                                    890(v),196(r),197(r),554(r)
   164. CR (   1) C  51                  1.99869   -10.11464  198(r),205(g),201(r),596(v)
                                                    206(v),200(r),204(v),889(v)
                                                    578(v),606(v),892(v),884(v)
                                                    886(v),197(r),554(r)
   165. CR (   1) C  52                  1.99868   -10.11625  198(r),206(g),199(r),201(r)
                                                    587(v),560(v),202(v),205(v)
                                                    891(v),885(v),607(v),888(v)
                                                    883(v),196(r),554(r)
   202. LP*(   1) C  48                  0.97674    -0.13595  206(v),203(v),191(r),197(r)
                                                    190(r),205(r),204(r),192(r)
                                                    189(r),200(r),196(r),198(r)
                                                    201(r),883(g),884(g),199(r)
                                                    188(r),561(g),892(v),887(v)
                                                    559(g),595(v),598(v),567(g)
                                                    568(v),571(v),558(r),555(r)
                                                    399(r),557(r),554(r),397(r)
                                                    389(r),405(r)
   203. LP*(   1) C  49                  0.97317    -0.13426  204(v),202(v),191(r),196(r)
                                                    205(r),197(r),206(r),192(r)
                                                    190(r),200(r),198(r),189(r)
                                                    883(g),886(g),201(r),188(r)
                                                    199(r),570(g),889(v),885(v)
                                                    568(g),578(v),559(v),562(v)
                                                    580(v),556(r),555(r),558(r)
                                                    554(r),557(r),397(r),414(r)
                                                    398(r)
   204. LP (   1) C  50                  0.98182    -0.13364  203(v),205(v),196(r),197(r)
                                                    192(r),202(r),206(r),191(r)
                                                    190(r),198(r),188(r),199(r)
                                                    189(r),201(r),886(g),888(g)
                                                    891(v),887(v),578(g),579(g)
                                                    577(g),568(v),586(v),571(v)
                                                    589(v),581(g),555(r),556(r)
                                                    557(r),254(r),554(r),811(r)
                                                    389(r),821(r),418(r),200(r)
   205. LP (   1) C  51                  0.98370    -0.13534  206(v),204(v),197(r),202(r)
                                                    203(r),196(r),191(r),189(r)
                                                    190(r),192(r),188(r),198(r)
                                                    201(r),890(g),888(g),200(r)
                                                    586(g),889(v),892(v),588(g)
                                                    577(v),580(v),598(v),595(v)
                                                    557(r),555(r),558(r),809(r)
                                                    556(r),553(r),554(r),436(r)
                                                    254(r),419(r),811(r)
   206. LP (   1) C  52                  0.98275    -0.13633  202(v),205(v),196(r),191(r)
                                                    190(r),203(r),189(r),204(r)
                                                    192(r),198(r),199(r),197(r)
                                                    201(r),188(r),890(g),884(g)
                                                    891(v),595(g),885(v),597(g)
                                                    586(v),556(r),559(v),589(v)
                                                    562(v),558(r),554(r),557(r)
   559. RY*(   1) C  48                  0.00376     0.94012   
   560. RY*(   2) C  48                  0.00363     0.62622   
   561. RY*(   3) C  48                  0.00259     1.10734   
   562. RY*(   4) C  48                  0.00108     1.88441   
   563. RY*(   5) C  48                  0.00091     0.69833   
   564. RY*(   6) C  48                  0.00021     1.94898   
   565. RY*(   7) C  48                  0.00010     2.33044   
   566. RY*(   8) C  48                  0.00006     2.18419   
   567. RY*(   9) C  48                  0.00005     2.02277   
   568. RY*(   1) C  49                  0.00378     0.91493   
   569. RY*(   2) C  49                  0.00361     0.63681   
   570. RY*(   3) C  49                  0.00268     1.13479   
   571. RY*(   4) C  49                  0.00109     1.87716   
   572. RY*(   5) C  49                  0.00091     0.70259   
   573. RY*(   6) C  49                  0.00019     1.95610   
   574. RY*(   7) C  49                  0.00010     2.33260   
   575. RY*(   8) C  49                  0.00006     2.08590   
   576. RY*(   9) C  49                  0.00005     2.11872   
   577. RY*(   1) C  50                  0.00427     0.80587   
   578. RY*(   2) C  50                  0.00390     0.75781   
   579. RY*(   3) C  50                  0.00268     1.29294   
   580. RY*(   4) C  50                  0.00106     1.86246   
   581. RY*(   5) C  50                  0.00096     0.71830   
   582. RY*(   6) C  50                  0.00021     1.99627   
   583. RY*(   7) C  50                  0.00010     2.16670   
   584. RY*(   8) C  50                  0.00011     2.24675   
   585. RY*(   9) C  50                  0.00005     2.17099   
   586. RY*(   1) C  51                  0.00399     0.85261   
   587. RY*(   2) C  51                  0.00382     0.69693   
   588. RY*(   3) C  51                  0.00262     1.28390   
   589. RY*(   4) C  51                  0.00108     1.86639   
   590. RY*(   5) C  51                  0.00100     0.71489   
   591. RY*(   6) C  51                  0.00021     1.97460   
   592. RY*(   7) C  51                  0.00011     2.36396   
   593. RY*(   8) C  51                  0.00007     2.06238   
   594. RY*(   9) C  51                  0.00005     2.15590   
   595. RY*(   1) C  52                  0.00398     0.86642   
   596. RY*(   2) C  52                  0.00362     0.65393   
   597. RY*(   3) C  52                  0.00258     1.19692   
   598. RY*(   4) C  52                  0.00109     1.88531   
   599. RY*(   5) C  52                  0.00093     0.69688   
   600. RY*(   6) C  52                  0.00020     1.95702   
   601. RY*(   7) C  52                  0.00010     2.33436   
   602. RY*(   8) C  52                  0.00007     2.06841   
   603. RY*(   9) C  52                  0.00005     2.14716   
   604. RY*(   1) H  53                  0.00116     0.34517   
   605. RY*(   1) H  54                  0.00424     0.52678   
   606. RY*(   1) H  55                  0.00249     0.44583   
   607. RY*(   1) H  56                  0.00135     0.36312   
   806. RY*(   1) H  95                  0.00115     0.34948   
   883. BD*(   1) C  48 - C  49          0.03175     0.50396   
   884. BD*(   1) C  48 - C  52          0.03183     0.50283   
   885. BD*(   1) C  48 - H  53          0.01589     0.48331   
   886. BD*(   1) C  49 - C  50          0.03125     0.50859   
   887. BD*(   1) C  49 - H  95          0.01585     0.48501   
   888. BD*(   1) C  50 - C  51          0.03175     0.50473   
   889. BD*(   1) C  50 - H  54          0.01693     0.50346   
   890. BD*(   1) C  51 - C  52          0.03224     0.50722   
   891. BD*(   1) C  51 - H  55          0.01758     0.49332   
   892. BD*(   1) C  52 - H  56          0.01624     0.48332   
       -------------------------------
              Total Lewis   32.68272  ( 93.5179%)
        Valence non-Lewis    2.19121  (  6.2699%)
        Rydberg non-Lewis    0.07416  (  0.2122%)
       -------------------------------
            Total unit  3   34.94809  (100.0000%)
           Charge unit  3    0.05191
 Leave Link  607 at Fri Sep 29 19:35:14 2023, MaxMem=  4026531840 cpu:              40.6 elap:               5.9
 (Enter /sw/arch/RHEL8/EB_production/2022/software/Gaussian/g16.c02/l9999.exe)
 Unable to Open any file for archive entry.
 1\1\GINC-TCN553\SP\RPBE1PBE\def2SVPP\C44H36F12Fe1P2\ADARSH\29-Sep-2023
 \0\\#p pop=nbo pbe1pbe/def2svpp empiricaldispersion=gd3bj integral=gri
 d=ultrafinegrid scf=(xqc,maxconventionalcycles=90) nosymm\\Cisa\\0,1\P
 ,0,0.15989,0.75727,-0.57358\C,0,1.6005,0.87932,-1.68822\C,0,1.46352,0.
 34069,-2.96658\C,0,2.54122,0.33384,-3.84948\C,0,3.77085,0.85566,-3.459
 64\C,0,3.91029,1.38696,-2.17609\C,0,2.83149,1.41115,-1.295\C,0,0.30859
 ,2.20898,0.52382\C,0,0.08217,2.11416,1.90273\C,0,0.1276,3.2599,2.69081
 \C,0,0.34734,4.51405,2.11636\C,0,0.54787,4.60752,0.74389\C,0,0.54978,3
 .45934,-0.04761\P,0,-2.64542,-0.77405,-0.25752\C,0,-1.50137,-2.23672,-
 0.06352\C,0,-2.15649,-3.50584,0.47085\C,0,0.52533,-0.63385,0.50797\C,0
 ,-0.27675,-1.81971,0.70612\C,0,0.31189,-2.54341,1.78554\C,0,1.46563,-1
 .84416,2.23726\C,0,1.61037,-0.6747,1.44978\H,0,0.49767,-0.0758,-3.2735
 6\H,0,2.95906,1.84733,-0.30068\H,0,-0.11636,1.14514,2.36599\H,0,0.7519
 1,3.54962,-1.11944\H,0,-1.20342,-2.42709,-1.11009\H,0,-1.43083,-4.3365
 7,0.44409\H,0,-3.02061,-3.79324,-0.14729\H,0,-2.51077,-3.39486,1.5078\
 H,0,2.4006,0.06983,1.54587\C,0,-3.17811,1.45663,3.72313\C,0,-2.7798,0.
 11609,3.78197\C,0,-2.62466,-0.58792,2.58336\C,0,-2.84624,0.04231,1.354
 74\C,0,-3.2261,1.39105,1.32812\C,0,-3.40493,2.11419,2.50979\H,0,-2.312
 72,-1.63297,2.6241\H,0,-3.36733,1.89142,0.36307\C,0,-6.7067,-2.5194,-1
 .48453\C,0,-6.63614,-1.77644,-0.3037\C,0,-5.39344,-1.25724,0.08442\C,0
 ,-4.26002,-1.47477,-0.70038\C,0,-4.36017,-2.21739,-1.88559\C,0,-5.5832
 3,-2.7554,-2.2888\H,0,-5.31403,-0.68336,1.01256\H,0,-3.47024,-2.39724,
 -2.50036\Fe,0,1.64328,-2.31543,0.2506\C,0,2.60734,-4.10724,0.04881\C,0
 ,3.53895,-3.03439,-0.0445\C,0,3.15196,-2.20663,-1.13491\C,0,1.98069,-2
 .77226,-1.7214\C,0,1.64529,-3.9459,-0.98989\H,0,2.6135,-4.89736,0.7999
 8\H,0,3.66174,-1.29754,-1.45215\H,0,1.445,-2.38058,-2.58528\H,0,0.7927
 2,-4.59912,-1.17968\H,0,4.61644,0.85189,-4.15052\H,0,0.37442,5.41285,2
 .7367\H,0,-3.29516,2.01409,4.65816\H,0,-7.67256,-2.93529,-1.79173\C,0,
 -2.5069,-0.53644,5.10591\H,0,-3.3879,-0.48065,5.76856\H,0,-2.23607,-1.
 59771,4.9878\H,0,-1.67565,-0.0274,5.62443\C,0,-3.81419,3.55832,2.47889
 \H,0,-4.83199,3.69167,2.88689\H,0,-3.13477,4.17373,3.09153\H,0,-3.8085
 5,3.95663,1.45123\C,0,-7.86481,-1.52076,0.52097\H,0,-7.60899,-1.29805,
 1.56947\H,0,-8.42855,-0.65537,0.12646\H,0,-8.54663,-2.38689,0.50825\C,
 0,-5.7022,-3.5683,-3.54585\H,0,-6.44512,-3.12995,-4.2349\H,0,-4.7407,-
 3.63485,-4.0801\H,0,-6.03606,-4.59698,-3.32279\F,0,1.92784,-1.51688,-5
 .14587\C,0,2.32101,-0.24005,-5.22489\F,0,1.34843,0.42629,-5.85916\F,0,
 3.41363,-0.18947,-5.97349\F,0,5.91201,0.85545,-1.09862\C,0,5.26163,1.8
 5816,-1.69956\F,0,6.01701,2.28477,-2.70591\F,0,5.1455,2.84626,-0.81329
 \F,0,0.98847,3.75438,4.80963\C,0,-0.03581,3.17522,4.18755\F,0,-1.14686
 ,3.80349,4.59274\F,0,-0.11017,1.91227,4.61039\F,0,-0.29129,6.19112,-0.
 75417\C,0,0.74043,5.93902,0.06491\F,0,0.82345,6.93793,0.93466\F,0,1.84
 286,5.94062,-0.68431\H,0,2.14461,-2.17361,3.02346\H,0,-0.03399,-3.5012
 5,2.17107\H,0,4.3818,-2.85819,0.62415\\Version=ES64L-G16RevC.02\HF=-48
 36.9804733\RMSD=4.195e-09\Dipole=-0.5892806,-1.5388263,0.8845557\Quadr
 upole=3.2519394,-2.1378484,-1.114091,-0.2096199,1.9720574,-1.2446734\P
 G=C01 [X(C44H36F12Fe1P2)]\\@
 The archive entry for this job was punched.


 There was a great rattling of the words for the fewness of ideas.
                   -- Charles Baxter in Gryphon
 Job cpu time:       0 days  1 hours 42 minutes 29.0 seconds.
 Elapsed time:       0 days  0 hours  3 minutes 37.9 seconds.
 File lengths (MBytes):  RWF=    672 Int=      0 D2E=      0 Chk=     56 Scr=     32
 Normal termination of Gaussian 16 at Fri Sep 29 19:35:14 2023.
