 Entering Gaussian System, Link 0=g16
 Input=free_ligand_L17_SP.inp
 Output=free_ligand_L17_SP.log
 Initial command:
 /sw/arch/Centos8/EB_production/2021/software/Gaussian/g16.c01/l1.exe "/scratch-local/adarsh.3296403/Gau-3354150.inp" -scrdir="/scratch-local/adarsh.3296403/"
 Entering Link 1 = /sw/arch/Centos8/EB_production/2021/software/Gaussian/g16.c01/l1.exe PID=   3354153.
  
 Copyright (c) 1988-2019, Gaussian, Inc.  All Rights Reserved.
  
 This is part of the Gaussian(R) 16 program.  It is based on
 the Gaussian(R) 09 system (copyright 2009, Gaussian, Inc.),
 the Gaussian(R) 03 system (copyright 2003, Gaussian, Inc.),
 the Gaussian(R) 98 system (copyright 1998, Gaussian, Inc.),
 the Gaussian(R) 94 system (copyright 1995, Gaussian, Inc.),
 the Gaussian 92(TM) system (copyright 1992, Gaussian, Inc.),
 the Gaussian 90(TM) system (copyright 1990, Gaussian, Inc.),
 the Gaussian 88(TM) system (copyright 1988, Gaussian, Inc.),
 the Gaussian 86(TM) system (copyright 1986, Carnegie Mellon
 University), and the Gaussian 82(TM) system (copyright 1983,
 Carnegie Mellon University). Gaussian is a federally registered
 trademark of Gaussian, Inc.
  
 This software contains proprietary and confidential information,
 including trade secrets, belonging to Gaussian, Inc.
  
 This software is provided under written license and may be
 used, copied, transmitted, or stored only in accord with that
 written license.
  
 The following legend is applicable only to US Government
 contracts under FAR:
  
                    RESTRICTED RIGHTS LEGEND
  
 Use, reproduction and disclosure by the US Government is
 subject to restrictions as set forth in subparagraphs (a)
 and (c) of the Commercial Computer Software - Restricted
 Rights clause in FAR 52.227-19.
  
 Gaussian, Inc.
 340 Quinnipiac St., Bldg. 40, Wallingford CT 06492
  
  
 ---------------------------------------------------------------
 Warning -- This program may not be used in any manner that
 competes with the business of Gaussian, Inc. or will provide
 assistance to any competitor of Gaussian, Inc.  The licensee
 of this program is prohibited from giving any competitor of
 Gaussian, Inc. access to this program.  By using this program,
 the user acknowledges that Gaussian, Inc. is engaged in the
 business of creating and licensing software in the field of
 computational chemistry and represents and warrants to the
 licensee that it is not a competitor of Gaussian, Inc. and that
 it will not use this program in any manner prohibited above.
 ---------------------------------------------------------------
  

 Cite this work as:
 Gaussian 16, Revision C.01,
 M. J. Frisch, G. W. Trucks, H. B. Schlegel, G. E. Scuseria, 
 M. A. Robb, J. R. Cheeseman, G. Scalmani, V. Barone, 
 G. A. Petersson, H. Nakatsuji, X. Li, M. Caricato, A. V. Marenich, 
 J. Bloino, B. G. Janesko, R. Gomperts, B. Mennucci, H. P. Hratchian, 
 J. V. Ortiz, A. F. Izmaylov, J. L. Sonnenberg, D. Williams-Young, 
 F. Ding, F. Lipparini, F. Egidi, J. Goings, B. Peng, A. Petrone, 
 T. Henderson, D. Ranasinghe, V. G. Zakrzewski, J. Gao, N. Rega, 
 G. Zheng, W. Liang, M. Hada, M. Ehara, K. Toyota, R. Fukuda, 
 J. Hasegawa, M. Ishida, T. Nakajima, Y. Honda, O. Kitao, H. Nakai, 
 T. Vreven, K. Throssell, J. A. Montgomery, Jr., J. E. Peralta, 
 F. Ogliaro, M. J. Bearpark, J. J. Heyd, E. N. Brothers, K. N. Kudin, 
 V. N. Staroverov, T. A. Keith, R. Kobayashi, J. Normand, 
 K. Raghavachari, A. P. Rendell, J. C. Burant, S. S. Iyengar, 
 J. Tomasi, M. Cossi, J. M. Millam, M. Klene, C. Adamo, R. Cammi, 
 J. W. Ochterski, R. L. Martin, K. Morokuma, O. Farkas, 
 J. B. Foresman, and D. J. Fox, Gaussian, Inc., Wallingford CT, 2019.
 
 ******************************************
 Gaussian 16:  ES64L-G16RevC.01  3-Jul-2019
                12-Aug-2023 
 ******************************************
 %nprocshared=32
 Will use up to   32 processors via shared memory.
 %mem=30GB
 %chk=free_ligand_L17.chk
 ----------------------------------------------------------------------
 #p pop=nbo NMR pbe1pbe/def2svpp empiricaldispersion=gd3bj integral=gri
 d=ultrafinegrid scf=(xqc,maxconventionalcycles=90) nosymm
 ----------------------------------------------------------------------
 1/38=1,172=1/1;
 2/12=2,15=1,17=6,18=5,40=1/2;
 3/5=43,7=202,11=2,25=1,30=1,74=-13,75=-5,124=41/1,2,3,8;
 4//1;
 5/5=2,8=3,13=1,38=5,85=90/2,8;
 8/6=1,10=90,11=11/1;
 10/13=100,31=1,45=16/2;
 6/7=2,8=2,9=2,10=2,28=1,40=1,64=1/1,7;
 99/9=1/99;
 Leave Link    1 at Sat Aug 12 03:09:00 2023, MaxMem=  4026531840 cpu:              40.0 elap:               1.3
 (Enter /sw/arch/Centos8/EB_production/2021/software/Gaussian/g16.c01/l101.exe)
 ----
 Cisa
 ----
 Symbolic Z-matrix:
 Charge =  0 Multiplicity = 1
 P                     1.85641   0.51505  -0.15282 
 P                    -1.17027   1.26636   1.60852 
 N                     1.68583  -1.12602  -0.64279 
 N                    -1.9988    0.04342   0.75537 
 C                    -0.53092  -2.09623  -0.40997 
 C                    -1.07912  -1.00679  -1.24963 
 C                    -1.3884   -3.09759   0.14333 
 C                    -0.80959  -0.95322  -2.65078 
 C                     0.82849  -2.12513  -0.13736 
 C                    -1.80204   0.01082  -0.64701 
 C                    -0.82912  -4.13458   0.95344 
 C                    -1.25863   0.17201  -3.40991 
 C                     1.37874  -3.18123   0.63731 
 C                    -2.30158   1.092    -1.42149 
 C                     0.57285  -4.15813   1.16407 
 C                    -2.02855   1.17194  -2.76557 
 C                    -2.78877  -3.1082   -0.09599 
 C                    -0.0608   -1.96094  -3.31199 
 C                    -1.68334  -5.11836   1.51127 
 C                    -0.92172   0.26036  -4.78558 
 C                    -3.59246  -4.07752   0.46187 
 C                     0.25517  -1.84489  -4.64665 
 C                    -3.03883  -5.0894    1.27765 
 C                    -0.17187  -0.72119  -5.39163 
 C                     3.10274   0.91168  -1.4292 
 C                     2.80202   0.49001   1.41267 
 C                    -2.47174   2.38514   2.2262 
 C                    -0.52955   0.43299   3.09939 
 C                     2.74685   0.71374  -2.77211 
 C                     3.72291  -0.52715   1.69099 
 C                    -3.812     2.13763   1.90933 
 C                    -0.68101   0.95896   4.38828 
 C                     4.35724   1.44575  -1.11481 
 C                     2.56498   1.48081   2.37108 
 C                    -2.14276   3.53212   2.96353 
 C                     0.20328  -0.74749   2.92713 
 C                     3.64106   1.04868  -3.78599 
 C                     4.38257  -0.56085   2.91663 
 C                    -4.80663   3.02322   2.32333 
 C                    -0.08262   0.32524   5.47659 
 C                     5.24674   1.782    -2.13599 
 C                     3.22658   1.45015   3.59676 
 C                    -3.13891   4.41177   3.38081 
 C                     0.78961  -1.38393   4.0154 
 C                     4.89009   1.58615  -3.46977 
 C                     4.12908   0.42412   3.87332 
 C                    -4.47284   4.16066   3.0571 
 C                     0.65836  -0.8413    5.29341 
 H                     2.56537  -1.49589  -0.99802 
 H                    -2.13216  -0.8539    1.21868 
 H                     2.4551   -3.19324   0.82655 
 H                    -2.93535   1.83541  -0.93386 
 H                     1.00496  -4.96316   1.76581 
 H                    -2.41579   2.00728  -3.35641 
 H                    -3.22441  -2.34186  -0.74297 
 H                     0.26522  -2.83504  -2.74311 
 H                    -1.24362  -5.90574   2.13078 
 H                    -1.27338   1.12377  -5.35879 
 H                    -4.66813  -4.07041   0.26392 
 H                     0.83448  -2.63137  -5.13874 
 H                    -3.68881  -5.85296   1.71365 
 H                     0.08187  -0.64343  -6.45261 
 H                     1.77234   0.28202  -3.02543 
 H                     3.93227  -1.30054   0.94593 
 H                    -4.06841   1.24017   1.3394 
 H                    -1.28223   1.85413   4.55862 
 H                     4.64239   1.5984   -0.0697 
 H                     1.83562   2.2685    2.14815 
 H                    -1.10236   3.73869   3.23254 
 H                     0.31771  -1.18229   1.93285 
 H                     3.35854   0.88667  -4.83017 
 H                     5.09886  -1.35993   3.12853 
 H                    -5.85177   2.81886   2.07368 
 H                    -0.20948   0.74354   6.47917 
 H                     6.22835   2.19417  -1.88528 
 H                     3.02675   2.22241   4.34457 
 H                    -2.87206   5.29964   3.96106 
 H                     1.35579  -2.30556   3.85624 
 H                     5.59076   1.84931  -4.26735 
 H                     4.64088   0.39092   4.83948 
 H                    -5.25427   4.85393   3.38089 
 H                     1.12511  -1.3344    6.1509 
 
 ITRead=  0  0  0  0  0  0  0  0  0  0  0  0  0  0  0  0  0  0  0  0
 ITRead=  0  0  0  0  0  0  0  0  0  0  0  0  0  0  0  0  0  0  0  0
 ITRead=  0  0  0  0  0  0  0  0  0  0  0  0  0  0  0  0  0  0  0  0
 ITRead=  0  0  0  0  0  0  0  0  0  0  0  0  0  0  0  0  0  0  0  0
 ITRead=  0  0
 MicOpt= -1 -1 -1 -1 -1 -1 -1 -1 -1 -1 -1 -1 -1 -1 -1 -1 -1 -1 -1 -1
 MicOpt= -1 -1 -1 -1 -1 -1 -1 -1 -1 -1 -1 -1 -1 -1 -1 -1 -1 -1 -1 -1
 MicOpt= -1 -1 -1 -1 -1 -1 -1 -1 -1 -1 -1 -1 -1 -1 -1 -1 -1 -1 -1 -1
 MicOpt= -1 -1 -1 -1 -1 -1 -1 -1 -1 -1 -1 -1 -1 -1 -1 -1 -1 -1 -1 -1
 MicOpt= -1 -1
 NAtoms=     82 NQM=       82 NQMF=       0 NMMI=      0 NMMIF=      0
                NMic=       0 NMicF=      0.
                    Isotopes and Nuclear Properties:
 (Nuclear quadrupole moments (NQMom) in fm**2, nuclear magnetic moments (NMagM)
  in nuclear magnetons)

  Atom         1           2           3           4           5           6           7           8           9          10
 IAtWgt=          31          31          14          14          12          12          12          12          12          12
 AtmWgt=  30.9737634  30.9737634  14.0030740  14.0030740  12.0000000  12.0000000  12.0000000  12.0000000  12.0000000  12.0000000
 NucSpn=           1           1           2           2           0           0           0           0           0           0
 AtZEff=  -0.0000000  -0.0000000  -0.0000000  -0.0000000  -0.0000000  -0.0000000  -0.0000000  -0.0000000  -0.0000000  -0.0000000
 NQMom=    0.0000000   0.0000000   2.0440000   2.0440000   0.0000000   0.0000000   0.0000000   0.0000000   0.0000000   0.0000000
 NMagM=    1.1316000   1.1316000   0.4037610   0.4037610   0.0000000   0.0000000   0.0000000   0.0000000   0.0000000   0.0000000
 AtZNuc=  15.0000000  15.0000000   7.0000000   7.0000000   6.0000000   6.0000000   6.0000000   6.0000000   6.0000000   6.0000000

  Atom        11          12          13          14          15          16          17          18          19          20
 IAtWgt=          12          12          12          12          12          12          12          12          12          12
 AtmWgt=  12.0000000  12.0000000  12.0000000  12.0000000  12.0000000  12.0000000  12.0000000  12.0000000  12.0000000  12.0000000
 NucSpn=           0           0           0           0           0           0           0           0           0           0
 AtZEff=  -0.0000000  -0.0000000  -0.0000000  -0.0000000  -0.0000000  -0.0000000  -0.0000000  -0.0000000  -0.0000000  -0.0000000
 NQMom=    0.0000000   0.0000000   0.0000000   0.0000000   0.0000000   0.0000000   0.0000000   0.0000000   0.0000000   0.0000000
 NMagM=    0.0000000   0.0000000   0.0000000   0.0000000   0.0000000   0.0000000   0.0000000   0.0000000   0.0000000   0.0000000
 AtZNuc=   6.0000000   6.0000000   6.0000000   6.0000000   6.0000000   6.0000000   6.0000000   6.0000000   6.0000000   6.0000000

  Atom        21          22          23          24          25          26          27          28          29          30
 IAtWgt=          12          12          12          12          12          12          12          12          12          12
 AtmWgt=  12.0000000  12.0000000  12.0000000  12.0000000  12.0000000  12.0000000  12.0000000  12.0000000  12.0000000  12.0000000
 NucSpn=           0           0           0           0           0           0           0           0           0           0
 AtZEff=  -0.0000000  -0.0000000  -0.0000000  -0.0000000  -0.0000000  -0.0000000  -0.0000000  -0.0000000  -0.0000000  -0.0000000
 NQMom=    0.0000000   0.0000000   0.0000000   0.0000000   0.0000000   0.0000000   0.0000000   0.0000000   0.0000000   0.0000000
 NMagM=    0.0000000   0.0000000   0.0000000   0.0000000   0.0000000   0.0000000   0.0000000   0.0000000   0.0000000   0.0000000
 AtZNuc=   6.0000000   6.0000000   6.0000000   6.0000000   6.0000000   6.0000000   6.0000000   6.0000000   6.0000000   6.0000000

  Atom        31          32          33          34          35          36          37          38          39          40
 IAtWgt=          12          12          12          12          12          12          12          12          12          12
 AtmWgt=  12.0000000  12.0000000  12.0000000  12.0000000  12.0000000  12.0000000  12.0000000  12.0000000  12.0000000  12.0000000
 NucSpn=           0           0           0           0           0           0           0           0           0           0
 AtZEff=  -0.0000000  -0.0000000  -0.0000000  -0.0000000  -0.0000000  -0.0000000  -0.0000000  -0.0000000  -0.0000000  -0.0000000
 NQMom=    0.0000000   0.0000000   0.0000000   0.0000000   0.0000000   0.0000000   0.0000000   0.0000000   0.0000000   0.0000000
 NMagM=    0.0000000   0.0000000   0.0000000   0.0000000   0.0000000   0.0000000   0.0000000   0.0000000   0.0000000   0.0000000
 AtZNuc=   6.0000000   6.0000000   6.0000000   6.0000000   6.0000000   6.0000000   6.0000000   6.0000000   6.0000000   6.0000000

  Atom        41          42          43          44          45          46          47          48          49          50
 IAtWgt=          12          12          12          12          12          12          12          12           1           1
 AtmWgt=  12.0000000  12.0000000  12.0000000  12.0000000  12.0000000  12.0000000  12.0000000  12.0000000   1.0078250   1.0078250
 NucSpn=           0           0           0           0           0           0           0           0           1           1
 AtZEff=  -0.0000000  -0.0000000  -0.0000000  -0.0000000  -0.0000000  -0.0000000  -0.0000000  -0.0000000  -0.0000000  -0.0000000
 NQMom=    0.0000000   0.0000000   0.0000000   0.0000000   0.0000000   0.0000000   0.0000000   0.0000000   0.0000000   0.0000000
 NMagM=    0.0000000   0.0000000   0.0000000   0.0000000   0.0000000   0.0000000   0.0000000   0.0000000   2.7928460   2.7928460
 AtZNuc=   6.0000000   6.0000000   6.0000000   6.0000000   6.0000000   6.0000000   6.0000000   6.0000000   1.0000000   1.0000000

  Atom        51          52          53          54          55          56          57          58          59          60
 IAtWgt=           1           1           1           1           1           1           1           1           1           1
 AtmWgt=   1.0078250   1.0078250   1.0078250   1.0078250   1.0078250   1.0078250   1.0078250   1.0078250   1.0078250   1.0078250
 NucSpn=           1           1           1           1           1           1           1           1           1           1
 AtZEff=  -0.0000000  -0.0000000  -0.0000000  -0.0000000  -0.0000000  -0.0000000  -0.0000000  -0.0000000  -0.0000000  -0.0000000
 NQMom=    0.0000000   0.0000000   0.0000000   0.0000000   0.0000000   0.0000000   0.0000000   0.0000000   0.0000000   0.0000000
 NMagM=    2.7928460   2.7928460   2.7928460   2.7928460   2.7928460   2.7928460   2.7928460   2.7928460   2.7928460   2.7928460
 AtZNuc=   1.0000000   1.0000000   1.0000000   1.0000000   1.0000000   1.0000000   1.0000000   1.0000000   1.0000000   1.0000000

  Atom        61          62          63          64          65          66          67          68          69          70
 IAtWgt=           1           1           1           1           1           1           1           1           1           1
 AtmWgt=   1.0078250   1.0078250   1.0078250   1.0078250   1.0078250   1.0078250   1.0078250   1.0078250   1.0078250   1.0078250
 NucSpn=           1           1           1           1           1           1           1           1           1           1
 AtZEff=  -0.0000000  -0.0000000  -0.0000000  -0.0000000  -0.0000000  -0.0000000  -0.0000000  -0.0000000  -0.0000000  -0.0000000
 NQMom=    0.0000000   0.0000000   0.0000000   0.0000000   0.0000000   0.0000000   0.0000000   0.0000000   0.0000000   0.0000000
 NMagM=    2.7928460   2.7928460   2.7928460   2.7928460   2.7928460   2.7928460   2.7928460   2.7928460   2.7928460   2.7928460
 AtZNuc=   1.0000000   1.0000000   1.0000000   1.0000000   1.0000000   1.0000000   1.0000000   1.0000000   1.0000000   1.0000000

  Atom        71          72          73          74          75          76          77          78          79          80
 IAtWgt=           1           1           1           1           1           1           1           1           1           1
 AtmWgt=   1.0078250   1.0078250   1.0078250   1.0078250   1.0078250   1.0078250   1.0078250   1.0078250   1.0078250   1.0078250
 NucSpn=           1           1           1           1           1           1           1           1           1           1
 AtZEff=  -0.0000000  -0.0000000  -0.0000000  -0.0000000  -0.0000000  -0.0000000  -0.0000000  -0.0000000  -0.0000000  -0.0000000
 NQMom=    0.0000000   0.0000000   0.0000000   0.0000000   0.0000000   0.0000000   0.0000000   0.0000000   0.0000000   0.0000000
 NMagM=    2.7928460   2.7928460   2.7928460   2.7928460   2.7928460   2.7928460   2.7928460   2.7928460   2.7928460   2.7928460
 AtZNuc=   1.0000000   1.0000000   1.0000000   1.0000000   1.0000000   1.0000000   1.0000000   1.0000000   1.0000000   1.0000000

  Atom        81          82
 IAtWgt=           1           1
 AtmWgt=   1.0078250   1.0078250
 NucSpn=           1           1
 AtZEff=  -0.0000000  -0.0000000
 NQMom=    0.0000000   0.0000000
 NMagM=    2.7928460   2.7928460
 AtZNuc=   1.0000000   1.0000000
 Leave Link  101 at Sat Aug 12 03:09:00 2023, MaxMem=  4026531840 cpu:              16.3 elap:               0.5
 (Enter /sw/arch/Centos8/EB_production/2021/software/Gaussian/g16.c01/l202.exe)
 Symmetry turned off by external request.
 Stoichiometry    C44H34N2P2
 Framework group  C1[X(C44H34N2P2)]
 Deg. of freedom   240
 Full point group                 C1      NOp   1
                          Input orientation:                          
 ---------------------------------------------------------------------
 Center     Atomic      Atomic             Coordinates (Angstroms)
 Number     Number       Type             X           Y           Z
 ---------------------------------------------------------------------
      1         15           0        1.856410    0.515050   -0.152820
      2         15           0       -1.170270    1.266360    1.608520
      3          7           0        1.685830   -1.126020   -0.642790
      4          7           0       -1.998800    0.043420    0.755370
      5          6           0       -0.530920   -2.096230   -0.409970
      6          6           0       -1.079120   -1.006790   -1.249630
      7          6           0       -1.388400   -3.097590    0.143330
      8          6           0       -0.809590   -0.953220   -2.650780
      9          6           0        0.828490   -2.125130   -0.137360
     10          6           0       -1.802040    0.010820   -0.647010
     11          6           0       -0.829120   -4.134580    0.953440
     12          6           0       -1.258630    0.172010   -3.409910
     13          6           0        1.378740   -3.181230    0.637310
     14          6           0       -2.301580    1.092000   -1.421490
     15          6           0        0.572850   -4.158130    1.164070
     16          6           0       -2.028550    1.171940   -2.765570
     17          6           0       -2.788770   -3.108200   -0.095990
     18          6           0       -0.060800   -1.960940   -3.311990
     19          6           0       -1.683340   -5.118360    1.511270
     20          6           0       -0.921720    0.260360   -4.785580
     21          6           0       -3.592460   -4.077520    0.461870
     22          6           0        0.255170   -1.844890   -4.646650
     23          6           0       -3.038830   -5.089400    1.277650
     24          6           0       -0.171870   -0.721190   -5.391630
     25          6           0        3.102740    0.911680   -1.429200
     26          6           0        2.802020    0.490010    1.412670
     27          6           0       -2.471740    2.385140    2.226200
     28          6           0       -0.529550    0.432990    3.099390
     29          6           0        2.746850    0.713740   -2.772110
     30          6           0        3.722910   -0.527150    1.690990
     31          6           0       -3.812000    2.137630    1.909330
     32          6           0       -0.681010    0.958960    4.388280
     33          6           0        4.357240    1.445750   -1.114810
     34          6           0        2.564980    1.480810    2.371080
     35          6           0       -2.142760    3.532120    2.963530
     36          6           0        0.203280   -0.747490    2.927130
     37          6           0        3.641060    1.048680   -3.785990
     38          6           0        4.382570   -0.560850    2.916630
     39          6           0       -4.806630    3.023220    2.323330
     40          6           0       -0.082620    0.325240    5.476590
     41          6           0        5.246740    1.782000   -2.135990
     42          6           0        3.226580    1.450150    3.596760
     43          6           0       -3.138910    4.411770    3.380810
     44          6           0        0.789610   -1.383930    4.015400
     45          6           0        4.890090    1.586150   -3.469770
     46          6           0        4.129080    0.424120    3.873320
     47          6           0       -4.472840    4.160660    3.057100
     48          6           0        0.658360   -0.841300    5.293410
     49          1           0        2.565370   -1.495890   -0.998020
     50          1           0       -2.132160   -0.853900    1.218680
     51          1           0        2.455100   -3.193240    0.826550
     52          1           0       -2.935350    1.835410   -0.933860
     53          1           0        1.004960   -4.963160    1.765810
     54          1           0       -2.415790    2.007280   -3.356410
     55          1           0       -3.224410   -2.341860   -0.742970
     56          1           0        0.265220   -2.835040   -2.743110
     57          1           0       -1.243620   -5.905740    2.130780
     58          1           0       -1.273380    1.123770   -5.358790
     59          1           0       -4.668130   -4.070410    0.263920
     60          1           0        0.834480   -2.631370   -5.138740
     61          1           0       -3.688810   -5.852960    1.713650
     62          1           0        0.081870   -0.643430   -6.452610
     63          1           0        1.772340    0.282020   -3.025430
     64          1           0        3.932270   -1.300540    0.945930
     65          1           0       -4.068410    1.240170    1.339400
     66          1           0       -1.282230    1.854130    4.558620
     67          1           0        4.642390    1.598400   -0.069700
     68          1           0        1.835620    2.268500    2.148150
     69          1           0       -1.102360    3.738690    3.232540
     70          1           0        0.317710   -1.182290    1.932850
     71          1           0        3.358540    0.886670   -4.830170
     72          1           0        5.098860   -1.359930    3.128530
     73          1           0       -5.851770    2.818860    2.073680
     74          1           0       -0.209480    0.743540    6.479170
     75          1           0        6.228350    2.194170   -1.885280
     76          1           0        3.026750    2.222410    4.344570
     77          1           0       -2.872060    5.299640    3.961060
     78          1           0        1.355790   -2.305560    3.856240
     79          1           0        5.590760    1.849310   -4.267350
     80          1           0        4.640880    0.390920    4.839480
     81          1           0       -5.254270    4.853930    3.380890
     82          1           0        1.125110   -1.334400    6.150900
 ---------------------------------------------------------------------
 Rotational constants (GHZ):           0.0717012           0.0607359           0.0541924
 Leave Link  202 at Sat Aug 12 03:09:00 2023, MaxMem=  4026531840 cpu:               0.1 elap:               0.0
 (Enter /sw/arch/Centos8/EB_production/2021/software/Gaussian/g16.c01/l301.exe)
 Standard basis: def2SVPP (5D, 7F)
 Ernie: Thresh=  0.10000D-02 Tol=  0.10000D-05 Strict=F.
   748 basis functions,  1360 primitive gaussians,   796 cartesian basis functions
   171 alpha electrons      171 beta electrons
       nuclear repulsion energy      6502.4984507747 Hartrees.
 IExCor= 1009 DFT=T Ex+Corr=PBE1PBE ExCW=0 ScaHFX=  0.250000
 ScaDFX=  0.750000  0.750000  1.000000  1.000000 ScalE2=  1.000000  1.000000
 IRadAn=      5 IRanWt=     -1 IRanGd=            0 ICorTp=0 IEmpDi=141
 NAtoms=   82 NActive=   82 NUniq=   82 SFac= 1.00D+00 NAtFMM=   60 NAOKFM=T Big=T
 Integral buffers will be    131072 words long.
 Raffenetti 2 integral format.
 Two-electron integral symmetry is turned off.
 R6Disp:  Grimme-D3(BJ) Dispersion energy=       -0.1430505552 Hartrees.
 Nuclear repulsion after empirical dispersion term =     6502.3554002195 Hartrees.
 Leave Link  301 at Sat Aug 12 03:09:00 2023, MaxMem=  4026531840 cpu:               0.8 elap:               0.0
 (Enter /sw/arch/Centos8/EB_production/2021/software/Gaussian/g16.c01/l302.exe)
 NPDir=0 NMtPBC=     1 NCelOv=     1 NCel=       1 NClECP=     1 NCelD=      1
         NCelK=      1 NCelE2=     1 NClLst=     1 CellRange=     0.0.
 One-electron integrals computed using PRISM.
   1 Symmetry operations used in ECPInt.
 ECPInt:  NShTT=   64980 NPrTT=  263196 LenC2=   55224 LenP2D=  136749.
 LDataN:  DoStor=T MaxTD1= 4 Len=   56
 NBasis=   748 RedAO= T EigKep=  1.65D-04  NBF=   748
 NBsUse=   748 1.00D-06 EigRej= -1.00D+00 NBFU=   748
 Precomputing XC quadrature grid using
 IXCGrd= 4 IRadAn=           5 IRanWt=          -1 IRanGd=           0 AccXCQ= 0.00D+00.
 Generated NRdTot=       0 NPtTot=           0 NUsed=           0 NTot=          32
 NSgBfM=   779   779   779   779   779 MxSgAt=    82 MxSgA2=    82.
 Leave Link  302 at Sat Aug 12 03:09:02 2023, MaxMem=  4026531840 cpu:              37.3 elap:               1.2
 (Enter /sw/arch/Centos8/EB_production/2021/software/Gaussian/g16.c01/l303.exe)
 DipDrv:  MaxL=1.
 Leave Link  303 at Sat Aug 12 03:09:02 2023, MaxMem=  4026531840 cpu:               3.5 elap:               0.1
 (Enter /sw/arch/Centos8/EB_production/2021/software/Gaussian/g16.c01/l308.exe)
 Leave Link  308 at Sat Aug 12 03:09:02 2023, MaxMem=  4026531840 cpu:               7.5 elap:               0.3
 (Enter /sw/arch/Centos8/EB_production/2021/software/Gaussian/g16.c01/l401.exe)
 ExpMin= 1.05D-01 ExpMax= 8.00D+03 ExpMxC= 1.20D+03 IAcc=3 IRadAn=         5 AccDes= 0.00D+00
 Harris functional with IExCor= 1009 and IRadAn=       5 diagonalized for initial guess.
 HarFok:  IExCor= 1009 AccDes= 0.00D+00 IRadAn=         5 IDoV= 1 UseB2=F ITyADJ=14
 ICtDFT=  3500011 ScaDFX=  1.000000  1.000000  1.000000  1.000000
 FoFCou: FMM=F IPFlag=           0 FMFlag=      100000 FMFlg1=        2001
         NFxFlg=           0 DoJE=T BraDBF=F KetDBF=T FulRan=T
         wScrn=  0.000000 ICntrl=       500 IOpCl=  0 I1Cent=   200000004 NGrid=           0
         NMat0=    1 NMatS0=      1 NMatT0=    0 NMatD0=    1 NMtDS0=    0 NMtDT0=    0
 Symmetry not used in FoFCou.
 Harris En= -2485.94913275318    
 JPrj=0 DoOrth=F DoCkMO=F.
 Leave Link  401 at Sat Aug 12 03:09:05 2023, MaxMem=  4026531840 cpu:              96.9 elap:               3.1
 (Enter /sw/arch/Centos8/EB_production/2021/software/Gaussian/g16.c01/l502.exe)
 Two-electron integral symmetry not used.
 Closed shell SCF:
 Using DIIS extrapolation, IDIIS=  1040.
 NGot=  4026531840 LenX=  4025230726 LenY=  4024596314
 Requested convergence on RMS density matrix=1.00D-08 within  90 cycles.
 Requested convergence on MAX density matrix=1.00D-06.
 Requested convergence on             energy=1.00D-06.
 No special actions if energy rises.
 Fock matrices will be formed incrementally for  20 cycles.
 Integral accuracy reduced to 1.0D-05 until final iterations.

 Cycle   1  Pass 0  IDiag  1:
 FoFJK:  IHMeth= 1 ICntrl=       0 DoSepK=F KAlg= 0 I1Cent=           0 FoldK=F
 IRaf= 990000000 NMat=       1 IRICut=       1 DoRegI=T DoRafI=F ISym2E= 0 IDoP0=0 IntGTp=1.
 FoFCou: FMM=T IPFlag=           0 FMFlag=      100000 FMFlg1=        2001
         NFxFlg=           0 DoJE=F BraDBF=F KetDBF=F FulRan=T
         wScrn=  0.000000 ICntrl=         0 IOpCl=  0 I1Cent=           0 NGrid=           0
         NMat0=    1 NMatS0=      1 NMatT0=    0 NMatD0=    1 NMtDS0=    0 NMtDT0=    0
 Symmetry not used in FoFCou.
 FMM levels:  10  Number of levels for PrismC:   9
 E= -2484.68908910509    
 DIIS: error= 1.65D-02 at cycle   1 NSaved=   1.
 NSaved= 1 IEnMin= 1 EnMin= -2484.68908910509     IErMin= 1 ErrMin= 1.65D-02
 ErrMax= 1.65D-02  0.00D+00 EMaxC= 1.00D-01 BMatC= 7.72D-01 BMatP= 7.72D-01
 IDIUse=3 WtCom= 8.35D-01 WtEn= 1.65D-01
 Coeff-Com:  0.100D+01
 Coeff-En:   0.100D+01
 Coeff:      0.100D+01
 Gap=     0.230 Goal=   None    Shift=    0.000
 GapD=    0.230 DampG=1.000 DampE=0.500 DampFc=0.5000 IDamp=-1.
 Damping current iteration by 5.00D-01
 RMSDP=4.00D-03 MaxDP=1.17D-01              OVMax= 1.51D-01

 Cycle   2  Pass 0  IDiag  1:
 RMSU=  1.82D-03    CP:  9.46D-01
 E= -2485.10788377433     Delta-E=       -0.418794669240 Rises=F Damp=T
 DIIS: error= 3.76D-03 at cycle   2 NSaved=   2.
 NSaved= 2 IEnMin= 2 EnMin= -2485.10788377433     IErMin= 2 ErrMin= 3.76D-03
 ErrMax= 3.76D-03  0.00D+00 EMaxC= 1.00D-01 BMatC= 4.28D-02 BMatP= 7.72D-01
 IDIUse=3 WtCom= 9.62D-01 WtEn= 3.76D-02
 Coeff-Com:  0.130D-01 0.987D+00
 Coeff-En:   0.189D-01 0.981D+00
 Coeff:      0.132D-01 0.987D+00
 Gap=     0.188 Goal=   None    Shift=    0.000
 RMSDP=1.47D-03 MaxDP=8.71D-02 DE=-4.19D-01 OVMax= 1.68D-01

 Cycle   3  Pass 0  IDiag  1:
 RMSU=  1.38D-03    CP:  9.18D-01  1.14D+00
 E= -2485.54138255278     Delta-E=       -0.433498778455 Rises=F Damp=F
 DIIS: error= 4.95D-03 at cycle   3 NSaved=   3.
 NSaved= 3 IEnMin= 3 EnMin= -2485.54138255278     IErMin= 2 ErrMin= 3.76D-03
 ErrMax= 4.95D-03  0.00D+00 EMaxC= 1.00D-01 BMatC= 3.68D-02 BMatP= 4.28D-02
 IDIUse=3 WtCom= 9.50D-01 WtEn= 4.95D-02
 Coeff-Com: -0.385D-01 0.492D+00 0.546D+00
 Coeff-En:   0.000D+00 0.000D+00 0.100D+01
 Coeff:     -0.366D-01 0.468D+00 0.569D+00
 Gap=     0.152 Goal=   None    Shift=    0.000
 RMSDP=7.78D-04 MaxDP=3.65D-02 DE=-4.33D-01 OVMax= 8.81D-02

 Cycle   4  Pass 0  IDiag  1:
 RMSU=  5.94D-04    CP:  9.18D-01  1.22D+00  6.50D-01
 E= -2485.56432540067     Delta-E=       -0.022942847889 Rises=F Damp=F
 DIIS: error= 4.38D-03 at cycle   4 NSaved=   4.
 NSaved= 4 IEnMin= 4 EnMin= -2485.56432540067     IErMin= 2 ErrMin= 3.76D-03
 ErrMax= 4.38D-03  0.00D+00 EMaxC= 1.00D-01 BMatC= 1.73D-02 BMatP= 3.68D-02
 IDIUse=3 WtCom= 9.56D-01 WtEn= 4.38D-02
 Coeff-Com: -0.277D-01 0.159D+00 0.408D+00 0.461D+00
 Coeff-En:   0.000D+00 0.000D+00 0.353D+00 0.647D+00
 Coeff:     -0.265D-01 0.152D+00 0.405D+00 0.469D+00
 Gap=     0.141 Goal=   None    Shift=    0.000
 RMSDP=3.52D-04 MaxDP=1.56D-02 DE=-2.29D-02 OVMax= 3.91D-02

 Cycle   5  Pass 0  IDiag  1:
 RMSU=  1.75D-04    CP:  9.16D-01  1.22D+00  7.53D-01  5.47D-01
 E= -2485.58381460982     Delta-E=       -0.019489209148 Rises=F Damp=F
 DIIS: error= 1.04D-03 at cycle   5 NSaved=   5.
 NSaved= 5 IEnMin= 5 EnMin= -2485.58381460982     IErMin= 5 ErrMin= 1.04D-03
 ErrMax= 1.04D-03  0.00D+00 EMaxC= 1.00D-01 BMatC= 1.16D-03 BMatP= 1.73D-02
 IDIUse=3 WtCom= 9.90D-01 WtEn= 1.04D-02
 Coeff-Com: -0.117D-01 0.408D-01 0.179D+00 0.275D+00 0.518D+00
 Coeff-En:   0.000D+00 0.000D+00 0.000D+00 0.121D-02 0.999D+00
 Coeff:     -0.116D-01 0.403D-01 0.177D+00 0.272D+00 0.523D+00
 Gap=     0.139 Goal=   None    Shift=    0.000
 RMSDP=8.69D-05 MaxDP=3.83D-03 DE=-1.95D-02 OVMax= 9.66D-03

 Cycle   6  Pass 0  IDiag  1:
 RMSU=  5.97D-05    CP:  9.16D-01  1.22D+00  7.65D-01  5.78D-01  6.70D-01
 E= -2485.58503169536     Delta-E=       -0.001217085541 Rises=F Damp=F
 DIIS: error= 4.00D-04 at cycle   6 NSaved=   6.
 NSaved= 6 IEnMin= 6 EnMin= -2485.58503169536     IErMin= 6 ErrMin= 4.00D-04
 ErrMax= 4.00D-04  0.00D+00 EMaxC= 1.00D-01 BMatC= 1.44D-04 BMatP= 1.16D-03
 IDIUse=3 WtCom= 9.96D-01 WtEn= 4.00D-03
 Coeff-Com: -0.396D-02 0.705D-02 0.599D-01 0.108D+00 0.312D+00 0.517D+00
 Coeff-En:   0.000D+00 0.000D+00 0.000D+00 0.000D+00 0.612D-01 0.939D+00
 Coeff:     -0.394D-02 0.702D-02 0.597D-01 0.108D+00 0.311D+00 0.519D+00
 Gap=     0.140 Goal=   None    Shift=    0.000
 RMSDP=3.14D-05 MaxDP=1.68D-03 DE=-1.22D-03 OVMax= 4.62D-03

 Cycle   7  Pass 0  IDiag  1:
 RMSU=  2.29D-05    CP:  9.16D-01  1.22D+00  7.65D-01  5.81D-01  7.21D-01
                    CP:  6.76D-01
 E= -2485.58523850192     Delta-E=       -0.000206806559 Rises=F Damp=F
 DIIS: error= 1.44D-04 at cycle   7 NSaved=   7.
 NSaved= 7 IEnMin= 7 EnMin= -2485.58523850192     IErMin= 7 ErrMin= 1.44D-04
 ErrMax= 1.44D-04  0.00D+00 EMaxC= 1.00D-01 BMatC= 2.01D-05 BMatP= 1.44D-04
 IDIUse=3 WtCom= 9.99D-01 WtEn= 1.44D-03
 Coeff-Com: -0.136D-02 0.681D-03 0.202D-01 0.396D-01 0.140D+00 0.331D+00
 Coeff-Com:  0.470D+00
 Coeff-En:   0.000D+00 0.000D+00 0.000D+00 0.000D+00 0.000D+00 0.000D+00
 Coeff-En:   0.100D+01
 Coeff:     -0.136D-02 0.680D-03 0.202D-01 0.396D-01 0.140D+00 0.330D+00
 Coeff:      0.471D+00
 Gap=     0.139 Goal=   None    Shift=    0.000
 RMSDP=1.35D-05 MaxDP=7.32D-04 DE=-2.07D-04 OVMax= 1.46D-03

 Cycle   8  Pass 0  IDiag  1:
 RMSU=  1.17D-05    CP:  9.16D-01  1.22D+00  7.65D-01  5.84D-01  7.09D-01
                    CP:  7.12D-01  7.55D-01
 E= -2485.58529585805     Delta-E=       -0.000057356132 Rises=F Damp=F
 DIIS: error= 2.66D-05 at cycle   8 NSaved=   8.
 NSaved= 8 IEnMin= 8 EnMin= -2485.58529585805     IErMin= 8 ErrMin= 2.66D-05
 ErrMax= 2.66D-05  0.00D+00 EMaxC= 1.00D-01 BMatC= 1.02D-06 BMatP= 2.01D-05
 IDIUse=1 WtCom= 1.00D+00 WtEn= 0.00D+00
 Coeff-Com: -0.281D-03-0.397D-03 0.460D-02 0.902D-02 0.396D-01 0.118D+00
 Coeff-Com:  0.238D+00 0.592D+00
 Coeff:     -0.281D-03-0.397D-03 0.460D-02 0.902D-02 0.396D-01 0.118D+00
 Coeff:      0.238D+00 0.592D+00
 Gap=     0.139 Goal=   None    Shift=    0.000
 RMSDP=8.29D-06 MaxDP=2.63D-04 DE=-5.74D-05 OVMax= 3.13D-04

 Initial convergence to 1.0D-05 achieved.  Increase integral accuracy.
 Cycle   9  Pass 1  IDiag  1:
 E= -2485.58435196375     Delta-E=        0.000943894296 Rises=F Damp=F
 DIIS: error= 7.67D-04 at cycle   1 NSaved=   1.
 NSaved= 1 IEnMin= 1 EnMin= -2485.58435196375     IErMin= 1 ErrMin= 7.67D-04
 ErrMax= 7.67D-04  0.00D+00 EMaxC= 1.00D-01 BMatC= 2.07D-04 BMatP= 2.07D-04
 IDIUse=3 WtCom= 9.92D-01 WtEn= 7.67D-03
 Coeff-Com:  0.100D+01
 Coeff-En:   0.100D+01
 Coeff:      0.100D+01
 Gap=     0.139 Goal=   None    Shift=    0.000
 RMSDP=8.29D-06 MaxDP=2.63D-04 DE= 9.44D-04 OVMax= 1.88D-03

 Cycle  10  Pass 1  IDiag  1:
 RMSU=  6.36D-04    CP:  9.97D-01
 E= -2485.58458604066     Delta-E=       -0.000234076910 Rises=F Damp=F
 DIIS: error= 2.95D-05 at cycle   2 NSaved=   2.
 NSaved= 2 IEnMin= 2 EnMin= -2485.58458604066     IErMin= 2 ErrMin= 2.95D-05
 ErrMax= 2.95D-05  0.00D+00 EMaxC= 1.00D-01 BMatC= 1.06D-06 BMatP= 2.07D-04
 IDIUse=1 WtCom= 1.00D+00 WtEn= 0.00D+00
 Coeff-Com: -0.480D-02 0.100D+01
 Coeff:     -0.480D-02 0.100D+01
 Gap=     0.140 Goal=   None    Shift=    0.000
 RMSDP=1.18D-05 MaxDP=3.03D-04 DE=-2.34D-04 OVMax= 6.58D-04

 Cycle  11  Pass 1  IDiag  1:
 RMSU=  7.02D-06    CP:  9.97D-01  1.01D+00
 E= -2485.58458210153     Delta-E=        0.000003939131 Rises=F Damp=F
 DIIS: error= 6.46D-05 at cycle   3 NSaved=   3.
 NSaved= 3 IEnMin= 2 EnMin= -2485.58458604066     IErMin= 2 ErrMin= 2.95D-05
 ErrMax= 6.46D-05  0.00D+00 EMaxC= 1.00D-01 BMatC= 4.49D-06 BMatP= 1.06D-06
 IDIUse=1 WtCom= 1.00D+00 WtEn= 0.00D+00
 Coeff-Com: -0.829D-02 0.682D+00 0.326D+00
 Coeff:     -0.829D-02 0.682D+00 0.326D+00
 Gap=     0.139 Goal=   None    Shift=    0.000
 RMSDP=4.43D-06 MaxDP=2.44D-04 DE= 3.94D-06 OVMax= 4.50D-04

 Cycle  12  Pass 1  IDiag  1:
 RMSU=  2.07D-06    CP:  9.97D-01  1.02D+00  4.45D-01
 E= -2485.58458729655     Delta-E=       -0.000005195019 Rises=F Damp=F
 DIIS: error= 3.84D-06 at cycle   4 NSaved=   4.
 NSaved= 4 IEnMin= 4 EnMin= -2485.58458729655     IErMin= 4 ErrMin= 3.84D-06
 ErrMax= 3.84D-06  0.00D+00 EMaxC= 1.00D-01 BMatC= 2.17D-08 BMatP= 1.06D-06
 IDIUse=1 WtCom= 1.00D+00 WtEn= 0.00D+00
 Coeff-Com: -0.444D-02 0.357D+00 0.176D+00 0.471D+00
 Coeff:     -0.444D-02 0.357D+00 0.176D+00 0.471D+00
 Gap=     0.139 Goal=   None    Shift=    0.000
 RMSDP=3.62D-07 MaxDP=1.76D-05 DE=-5.20D-06 OVMax= 4.51D-05

 Cycle  13  Pass 1  IDiag  1:
 RMSU=  3.47D-07    CP:  9.97D-01  1.02D+00  4.55D-01  9.64D-01
 E= -2485.58458731890     Delta-E=       -0.000000022346 Rises=F Damp=F
 DIIS: error= 1.20D-06 at cycle   5 NSaved=   5.
 NSaved= 5 IEnMin= 5 EnMin= -2485.58458731890     IErMin= 5 ErrMin= 1.20D-06
 ErrMax= 1.20D-06  0.00D+00 EMaxC= 1.00D-01 BMatC= 1.84D-09 BMatP= 2.17D-08
 IDIUse=1 WtCom= 1.00D+00 WtEn= 0.00D+00
 Coeff-Com: -0.790D-03 0.610D-01 0.310D-01 0.235D+00 0.673D+00
 Coeff:     -0.790D-03 0.610D-01 0.310D-01 0.235D+00 0.673D+00
 Gap=     0.139 Goal=   None    Shift=    0.000
 RMSDP=1.32D-07 MaxDP=5.28D-06 DE=-2.23D-08 OVMax= 1.51D-05

 Cycle  14  Pass 1  IDiag  1:
 RMSU=  1.00D-07    CP:  9.97D-01  1.02D+00  4.53D-01  9.92D-01  8.40D-01
 E= -2485.58458732047     Delta-E=       -0.000000001573 Rises=F Damp=F
 DIIS: error= 4.86D-07 at cycle   6 NSaved=   6.
 NSaved= 6 IEnMin= 6 EnMin= -2485.58458732047     IErMin= 6 ErrMin= 4.86D-07
 ErrMax= 4.86D-07  0.00D+00 EMaxC= 1.00D-01 BMatC= 4.72D-10 BMatP= 1.84D-09
 IDIUse=1 WtCom= 1.00D+00 WtEn= 0.00D+00
 Coeff-Com:  0.133D-04-0.265D-02-0.789D-03 0.938D-01 0.423D+00 0.487D+00
 Coeff:      0.133D-04-0.265D-02-0.789D-03 0.938D-01 0.423D+00 0.487D+00
 Gap=     0.139 Goal=   None    Shift=    0.000
 RMSDP=5.07D-08 MaxDP=2.78D-06 DE=-1.57D-09 OVMax= 5.58D-06

 Cycle  15  Pass 1  IDiag  1:
 RMSU=  2.80D-08    CP:  9.97D-01  1.02D+00  4.55D-01  9.94D-01  8.60D-01
                    CP:  5.98D-01
 E= -2485.58458732094     Delta-E=       -0.000000000467 Rises=F Damp=F
 DIIS: error= 1.38D-07 at cycle   7 NSaved=   7.
 NSaved= 7 IEnMin= 7 EnMin= -2485.58458732094     IErMin= 7 ErrMin= 1.38D-07
 ErrMax= 1.38D-07  0.00D+00 EMaxC= 1.00D-01 BMatC= 2.18D-11 BMatP= 4.72D-10
 IDIUse=1 WtCom= 1.00D+00 WtEn= 0.00D+00
 Coeff-Com:  0.381D-04-0.392D-02-0.168D-02 0.469D-01 0.226D+00 0.291D+00
 Coeff-Com:  0.442D+00
 Coeff:      0.381D-04-0.392D-02-0.168D-02 0.469D-01 0.226D+00 0.291D+00
 Coeff:      0.442D+00
 Gap=     0.139 Goal=   None    Shift=    0.000
 RMSDP=1.42D-08 MaxDP=9.80D-07 DE=-4.67D-10 OVMax= 1.61D-06

 Cycle  16  Pass 1  IDiag  1:
 RMSU=  1.20D-08    CP:  9.97D-01  1.02D+00  4.55D-01  9.95D-01  8.58D-01
                    CP:  5.93D-01  7.46D-01
 E= -2485.58458732093     Delta-E=        0.000000000005 Rises=F Damp=F
 DIIS: error= 6.36D-08 at cycle   8 NSaved=   8.
 NSaved= 8 IEnMin= 7 EnMin= -2485.58458732094     IErMin= 8 ErrMin= 6.36D-08
 ErrMax= 6.36D-08  0.00D+00 EMaxC= 1.00D-01 BMatC= 3.55D-12 BMatP= 2.18D-11
 IDIUse=1 WtCom= 1.00D+00 WtEn= 0.00D+00
 Coeff-Com:  0.247D-04-0.228D-02-0.105D-02 0.148D-01 0.759D-01 0.109D+00
 Coeff-Com:  0.294D+00 0.509D+00
 Coeff:      0.247D-04-0.228D-02-0.105D-02 0.148D-01 0.759D-01 0.109D+00
 Coeff:      0.294D+00 0.509D+00
 Gap=     0.139 Goal=   None    Shift=    0.000
 RMSDP=5.00D-09 MaxDP=2.40D-07 DE= 5.46D-12 OVMax= 5.07D-07

 SCF Done:  E(RPBE1PBE) =  -2485.58458732     A.U. after   16 cycles
            NFock= 16  Conv=0.50D-08     -V/T= 2.0080
 KE= 2.465903876083D+03 PE=-1.880584819360D+04 EE= 7.352004329974D+03
 Leave Link  502 at Sat Aug 12 03:10:47 2023, MaxMem=  4026531840 cpu:            3214.5 elap:             102.2
 (Enter /sw/arch/Centos8/EB_production/2021/software/Gaussian/g16.c01/l508.exe)
 QCSCF skips out because SCF is already converged.
 Leave Link  508 at Sat Aug 12 03:10:47 2023, MaxMem=  4026531840 cpu:               0.3 elap:               0.0
 (Enter /sw/arch/Centos8/EB_production/2021/software/Gaussian/g16.c01/l801.exe)
 DoSCS=F DFT=T ScalE2(SS,OS)=  1.000000  1.000000
 Range of M.O.s used for correlation:     1   748
 NBasis=   748 NAE=   171 NBE=   171 NFC=     0 NFV=     0
 NROrb=    748 NOA=   171 NOB=   171 NVA=   577 NVB=   577

 **** Warning!!: The largest alpha MO coefficient is  0.12501039D+02

 Leave Link  801 at Sat Aug 12 03:10:47 2023, MaxMem=  4026531840 cpu:               0.6 elap:               0.0
 (Enter /sw/arch/Centos8/EB_production/2021/software/Gaussian/g16.c01/l1002.exe)
 Minotr:  Closed shell wavefunction.
          Direct CPHF calculation.
          Differentiating once with respect to magnetic field using GIAOs.
          Electric field/nuclear overlap derivatives assumed to be zero.
          Requested convergence is 1.0D-08 RMS, and 1.0D-07 maximum.
          Secondary convergence is 1.0D-12 RMS, and 1.0D-12 maximum.
          NewPWx=T KeepS1=F KeepF1=F KeepIn=T MapXYZ=F SortEE=F KeepMc=T.
        25004 words used for storage of precomputed grid.
 Two-electron integral symmetry not used.
          MDV=    4026531840 using IRadAn=       1.
          Solving linear equations simultaneously, MaxMat=      96.
 FoFCou: FMM=F IPFlag=           0 FMFlag=      100000 FMFlg1=        2001
         NFxFlg=           0 DoJE=F BraDBF=F KetDBF=T FulRan=T
         wScrn=  0.000000 ICntrl=      6100 IOpCl=  0 I1Cent=           7 NGrid=          82
         NMat0=    1 NMatS0=      1 NMatT0=    0 NMatD0=    1 NMtDS0=    0 NMtDT0=    0
 Symmetry not used in FoFCou.
   1 Symmetry operations used in ECPInt.
 ECPInt:  NShTT=   64980 NPrTT=  263196 LenC2=   64981 LenP2D=  263196.
 LDataN:  DoStor=T MaxTD1= 5 Len=  102
 FoFJK:  IHMeth= 1 ICntrl=    6127 DoSepK=F KAlg= 0 I1Cent=           0 FoldK=F
 IRaf=         1 NMat=       1 IRICut=       1 DoRegI=T DoRafI=F ISym2E= 0 IDoP0=0 IntGTp=1.
          There are     3 degrees of freedom in the 1st order CPHF.  IDoFFX=0 NUNeed=     3.
      3 vectors produced by pass  0 Test12= 3.29D-12 3.33D-08 XBig12= 1.91D+02 2.19D+00.
 AX will form     3 AO Fock derivatives at one time.
      3 vectors produced by pass  1 Test12= 3.29D-12 3.33D-08 XBig12= 8.95D-01 1.96D-01.
      3 vectors produced by pass  2 Test12= 3.29D-12 3.33D-08 XBig12= 3.31D-03 1.33D-02.
      3 vectors produced by pass  3 Test12= 3.29D-12 3.33D-08 XBig12= 1.45D-05 1.20D-03.
      3 vectors produced by pass  4 Test12= 3.29D-12 3.33D-08 XBig12= 8.32D-08 7.91D-05.
      3 vectors produced by pass  5 Test12= 3.29D-12 3.33D-08 XBig12= 4.46D-10 4.50D-06.
      3 vectors produced by pass  6 Test12= 3.29D-12 3.33D-08 XBig12= 2.41D-12 2.81D-07.
 InvSVY:  IOpt=1 It=  1 EMax= 1.78D-15
 Solved reduced A of dimension    21 with     3 vectors.
 Calculating GIAO nuclear magnetic shielding tensors.
 SCF GIAO Magnetic shielding tensor (ppm):
      1  P    Isotropic =   367.2157   Anisotropy =    67.8488
   XX=   379.0411   YX=    -8.4782   ZX=    51.5299
   XY=    -6.6141   YY=   396.7390   ZY=     2.4950
   XZ=    43.3297   YZ=   -13.8999   ZZ=   325.8669
   Eigenvalues:   298.0682   391.1306   412.4482
      2  P    Isotropic =   354.3024   Anisotropy =    94.9358
   XX=   333.9231   YX=    59.8859   ZX=   -33.3608
   XY=     2.8777   YY=   370.4502   ZY=    44.3675
   XZ=   -10.0449   YZ=    58.8593   ZZ=   358.5340
   Eigenvalues:   284.4146   360.8997   417.5929
      3  N    Isotropic =   190.1888   Anisotropy =    70.7222
   XX=   168.3550   YX=    20.2046   ZX=   -18.5962
   XY=    28.1524   YY=   198.9454   ZY=    -7.9088
   XZ=   -57.2930   YZ=    -5.2345   ZZ=   203.2660
   Eigenvalues:   139.0001   194.2294   237.3369
      4  N    Isotropic =   202.0942   Anisotropy =    30.2294
   XX=   191.3141   YX=    30.2804   ZX=    23.0376
   XY=     5.6190   YY=   200.2980   ZY=   -15.9456
   XZ=     7.2535   YZ=    -4.3568   ZZ=   214.6706
   Eigenvalues:   169.9085   214.1271   222.2471
      5  C    Isotropic =    62.6829   Anisotropy =   150.1615
   XX=    44.5252   YX=   -10.8284   ZX=    -7.5695
   XY=    -5.8942   YY=    49.2626   ZY=    79.6730
   XZ=   -22.0936   YZ=    91.7746   ZZ=    94.2609
   Eigenvalues:   -16.9648    42.2229   162.7905
      6  C    Isotropic =    64.7647   Anisotropy =   140.6427
   XX=   116.1778   YX=    73.0369   ZX=    -5.0034
   XY=    47.0326   YY=    65.9545   ZY=    28.8260
   XZ=    -0.8571   YZ=    45.5462   ZZ=    12.1618
   Eigenvalues:   -15.4028    51.1703   158.5265
      7  C    Isotropic =    62.1956   Anisotropy =   201.9960
   XX=    -0.8988   YX=   -15.2692   ZX=   -22.6516
   XY=   -20.2944   YY=    64.3500   ZY=    89.3120
   XZ=   -22.6055   YZ=    99.6190   ZZ=   123.1357
   Eigenvalues:    -6.0338    -4.2390   196.8596
      8  C    Isotropic =    63.7989   Anisotropy =   198.9561
   XX=   140.0576   YX=    82.3641   ZX=    37.3449
   XY=    78.8346   YY=    47.7019   ZY=    24.3116
   XZ=    35.5010   YZ=    22.1726   ZZ=     3.6371
   Eigenvalues:    -6.4631     1.4235   196.4363
      9  C    Isotropic =    55.1009   Anisotropy =   145.3611
   XX=    27.3600   YX=   -42.6752   ZX=     5.5940
   XY=   -29.1949   YY=    24.1563   ZY=    72.4442
   XZ=     8.4464   YZ=    64.9350   ZZ=   113.7863
   Eigenvalues:   -33.3672    46.6616   152.0083
     10  C    Isotropic =    49.7356   Anisotropy =   152.1355
   XX=   120.0003   YX=    46.0024   ZX=    27.4067
   XY=    47.9394   YY=    67.0648   ZY=    11.3800
   XZ=    14.1529   YZ=    22.4576   ZZ=   -37.8583
   Eigenvalues:   -41.7722    39.8197   151.1593
     11  C    Isotropic =    65.1518   Anisotropy =   204.7890
   XX=    -1.1626   YX=    -9.8976   ZX=   -21.4399
   XY=   -13.1890   YY=    64.8166   ZY=    94.7393
   XZ=   -21.9329   YZ=    94.6430   ZZ=   131.8016
   Eigenvalues:    -6.3355     0.1131   201.6779
     12  C    Isotropic =    65.0324   Anisotropy =   204.6189
   XX=   142.7081   YX=    83.4689   ZX=    36.7192
   XY=    85.5488   YY=    43.1035   ZY=    23.0360
   XZ=    40.3168   YZ=    22.7674   ZZ=     9.2856
   Eigenvalues:    -5.3229    -1.0249   201.4450
     13  C    Isotropic =    66.1305   Anisotropy =   147.6508
   XX=   -12.7007   YX=     2.6497   ZX=   -28.2435
   XY=   -12.2033   YY=    89.1426   ZY=    48.0562
   XZ=   -53.8204   YZ=    49.6020   ZZ=   121.9496
   Eigenvalues:   -24.9629    58.7900   164.5644
     14  C    Isotropic =    68.3252   Anisotropy =   153.4061
   XX=   103.8009   YX=    92.2742   ZX=    30.9739
   XY=    79.8473   YY=    45.5842   ZY=    -6.9720
   XZ=    33.4944   YZ=    -1.1229   ZZ=    55.5904
   Eigenvalues:   -22.6389    57.0185   170.5959
     15  C    Isotropic =    63.6525   Anisotropy =   154.0741
   XX=    27.6611   YX=    23.6917   ZX=   -34.1778
   XY=    16.6107   YY=    56.4729   ZY=    78.6146
   XZ=   -39.9782   YZ=    77.8874   ZZ=   106.8236
   Eigenvalues:   -27.6613    52.2503   166.3686
     16  C    Isotropic =    63.5347   Anisotropy =   153.6246
   XX=   115.5672   YX=    79.1658   ZX=     6.8371
   XY=    76.9682   YY=    26.9357   ZY=    36.9248
   XZ=     6.8067   YZ=    33.8287   ZZ=    48.1013
   Eigenvalues:   -28.5170    53.1701   165.9512
     17  C    Isotropic =    68.8562   Anisotropy =   166.4882
   XX=    27.5564   YX=    20.6158   ZX=   -41.9509
   XY=    20.2956   YY=    69.4322   ZY=    84.6158
   XZ=   -35.4475   YZ=    87.1108   ZZ=   109.5800
   Eigenvalues:   -28.2493    54.9695   179.8483
     18  C    Isotropic =    67.1112   Anisotropy =   167.8943
   XX=   130.3639   YX=    76.2630   ZX=    18.8669
   XY=    78.3695   YY=    17.8712   ZY=    42.6164
   XZ=    17.2225   YZ=    35.3373   ZZ=    53.0983
   Eigenvalues:   -30.5353    52.8282   179.0407
     19  C    Isotropic =    64.8281   Anisotropy =   155.6105
   XX=    50.5948   YX=     5.8037   ZX=   -21.2023
   XY=     8.0794   YY=    41.8588   ZY=    91.6598
   XZ=   -22.6872   YZ=    88.5539   ZZ=   102.0308
   Eigenvalues:   -27.4719    53.3878   168.5685
     20  C    Isotropic =    64.8000   Anisotropy =   155.2378
   XX=   131.0152   YX=    59.2451   ZX=    10.3524
   XY=    60.9008   YY=    38.8191   ZY=    49.2474
   XZ=    10.4399   YZ=    52.8880   ZZ=    24.5657
   Eigenvalues:   -27.3310    53.4392   168.2919
     21  C    Isotropic =    66.5236   Anisotropy =   174.4165
   XX=   -24.5344   YX=     0.0879   ZX=   -35.2183
   XY=    -2.8880   YY=    94.8265   ZY=    63.9180
   XZ=   -36.8603   YZ=    64.5462   ZZ=   129.2786
   Eigenvalues:   -34.0603    50.8298   182.8012
     22  C    Isotropic =    68.2397   Anisotropy =   171.9500
   XX=   122.9502   YX=    84.6601   ZX=    41.1141
   XY=    88.9574   YY=    28.5189   ZY=    -5.7015
   XZ=    42.1756   YZ=    -7.6435   ZZ=    53.2500
   Eigenvalues:   -32.1677    54.0137   182.8730
     23  C    Isotropic =    69.1833   Anisotropy =   171.5774
   XX=    35.5387   YX=   -37.0585   ZX=     3.0925
   XY=   -41.2695   YY=    50.8368   ZY=    88.5279
   XZ=     2.3678   YZ=    87.6047   ZZ=   121.1742
   Eigenvalues:   -27.6301    51.6117   183.5682
     24  C    Isotropic =    70.4243   Anisotropy =   169.5287
   XX=   143.8899   YX=    50.8798   ZX=    35.1939
   XY=    50.3315   YY=    81.4611   ZY=    28.7350
   XZ=    40.8602   YZ=    28.7968   ZZ=   -14.0782
   Eigenvalues:   -25.8886    53.7181   183.4434
     25  C    Isotropic =    51.4933   Anisotropy =   186.6143
   XX=    16.6670   YX=   -63.4653   ZX=     6.2404
   XY=   -68.3618   YY=   148.6110   ZY=     0.7648
   XZ=    15.1227   YZ=     5.6562   ZZ=   -10.7980
   Eigenvalues:   -21.8090     0.3860   175.9029
     26  C    Isotropic =    55.8134   Anisotropy =   192.4892
   XX=   100.4289   YX=    68.2703   ZX=   -65.3363
   XY=    73.8716   YY=    60.1121   ZY=   -41.4442
   XZ=   -57.4556   YZ=   -37.8280   ZZ=     6.8994
   Eigenvalues:   -23.8951     7.1959   184.1396
     27  C    Isotropic =    53.1437   Anisotropy =   185.1051
   XX=    -4.3338   YX=    24.8716   ZX=    -8.6384
   XY=    20.7151   YY=    35.2925   ZY=   -76.3830
   XZ=   -17.6248   YZ=   -81.8100   ZZ=   128.4725
   Eigenvalues:   -21.7983     4.6823   176.5471
     28  C    Isotropic =    58.3635   Anisotropy =   183.6971
   XX=   116.2267   YX=    83.6976   ZX=   -34.3880
   XY=    84.2599   YY=    62.0495   ZY=     1.5330
   XZ=   -27.3770   YZ=    -1.9043   ZZ=    -3.1857
   Eigenvalues:   -21.1171    15.3794   180.8282
     29  C    Isotropic =    62.5453   Anisotropy =   180.6766
   XX=     4.5051   YX=   -77.9087   ZX=   -12.8341
   XY=   -71.8029   YY=   151.2818   ZY=    -9.0179
   XZ=   -20.8409   YZ=   -18.9738   ZZ=    31.8490
   Eigenvalues:   -33.6521    38.2916   182.9964
     30  C    Isotropic =    63.8187   Anisotropy =   186.7949
   XX=   125.6535   YX=    68.9093   ZX=   -19.0536
   XY=    76.6990   YY=    40.8403   ZY=   -67.4122
   XZ=   -34.4841   YZ=   -66.0501   ZZ=    24.9624
   Eigenvalues:   -40.5172    43.6247   188.3487
     31  C    Isotropic =    64.7801   Anisotropy =   184.7977
   XX=    38.6875   YX=   -17.8330   ZX=   -29.9226
   XY=    -3.5159   YY=    25.7317   ZY=   -99.6677
   XZ=   -36.8788   YZ=   -85.8694   ZZ=   129.9211
   Eigenvalues:   -37.7658    44.1276   187.9786
     32  C    Isotropic =    70.8452   Anisotropy =   178.2716
   XX=   121.0901   YX=    98.4082   ZX=   -14.0461
   XY=    96.3233   YY=    39.9620   ZY=   -26.7612
   XZ=    -4.1546   YZ=   -26.9407   ZZ=    51.4835
   Eigenvalues:   -28.7893    51.6320   189.6929
     33  C    Isotropic =    65.2763   Anisotropy =   177.0135
   XX=    54.6507   YX=   -52.7372   ZX=   -26.0479
   XY=   -47.5466   YY=   163.4226   ZY=   -17.7550
   XZ=   -21.1068   YZ=   -16.6052   ZZ=   -22.2446
   Eigenvalues:   -34.0199    46.5634   183.2853
     34  C    Isotropic =    57.6462   Anisotropy =   190.7569
   XX=    82.0093   YX=   107.0197   ZX=   -42.4987
   XY=   102.3735   YY=    40.9348   ZY=   -11.5023
   XZ=   -49.2466   YZ=   -25.6228   ZZ=    49.9944
   Eigenvalues:   -47.7310    35.8521   184.8175
     35  C    Isotropic =    64.8913   Anisotropy =   174.6916
   XX=   -23.8311   YX=    -8.0015   ZX=   -25.3502
   XY=   -16.7988   YY=    73.9777   ZY=   -70.8064
   XZ=   -34.9999   YZ=   -50.3705   ZZ=   144.5274
   Eigenvalues:   -34.7028    48.0244   181.3524
     36  C    Isotropic =    65.0263   Anisotropy =   186.9664
   XX=   143.7318   YX=    72.4081   ZX=    -3.7048
   XY=    71.5350   YY=    65.0447   ZY=   -40.5282
   XZ=   -11.4028   YZ=   -33.7629   ZZ=   -13.6976
   Eigenvalues:   -31.3638    36.7721   189.6705
     37  C    Isotropic =    66.7552   Anisotropy =   173.5860
   XX=    64.6670   YX=   -50.6728   ZX=   -21.1737
   XY=   -45.8629   YY=   162.4341   ZY=   -14.3676
   XZ=   -19.9042   YZ=   -17.3580   ZZ=   -26.8356
   Eigenvalues:   -34.9047    52.6911   182.4791
     38  C    Isotropic =    67.3401   Anisotropy =   176.2248
   XX=    88.7387   YX=    96.5880   ZX=   -45.8344
   XY=    96.0629   YY=    46.3465   ZY=   -17.1172
   XZ=   -46.0688   YZ=   -17.5510   ZZ=    66.9351
   Eigenvalues:   -33.6896    50.8866   184.8233
     39  C    Isotropic =    65.5935   Anisotropy =   175.8517
   XX=   -27.2205   YX=   -10.5144   ZX=   -30.7789
   XY=   -10.2172   YY=    79.7445   ZY=   -64.0353
   XZ=   -26.7868   YZ=   -57.9995   ZZ=   144.2564
   Eigenvalues:   -36.0628    50.0153   182.8279
     40  C    Isotropic =    68.1242   Anisotropy =   173.0324
   XX=   140.6731   YX=    63.3978   ZX=    -5.8336
   XY=    63.6383   YY=    78.7493   ZY=   -36.8323
   XZ=    -5.0899   YZ=   -38.0166   ZZ=   -15.0499
   Eigenvalues:   -29.9510    50.8444   183.4791
     41  C    Isotropic =    67.7209   Anisotropy =   172.6977
   XX=     4.7109   YX=   -73.5664   ZX=   -15.0148
   XY=   -74.5569   YY=   151.8172   ZY=   -12.2993
   XZ=   -14.2914   YZ=   -11.3806   ZZ=    46.6346
   Eigenvalues:   -30.3674    50.6775   182.8527
     42  C    Isotropic =    67.4592   Anisotropy =   181.2808
   XX=   123.5547   YX=    68.6680   ZX=   -28.6435
   XY=    68.8007   YY=    50.9519   ZY=   -66.6644
   XZ=   -28.6600   YZ=   -67.6249   ZZ=    27.8711
   Eigenvalues:   -32.8764    46.9410   188.3131
     43  C    Isotropic =    67.6400   Anisotropy =   173.2112
   XX=    48.0069   YX=    -8.5136   ZX=   -21.5821
   XY=    -9.5378   YY=    33.0009   ZY=   -93.6786
   XZ=   -23.5352   YZ=   -94.6695   ZZ=   121.9121
   Eigenvalues:   -31.6157    51.4215   183.1141
     44  C    Isotropic =    67.3428   Anisotropy =   179.1286
   XX=   119.4218   YX=   101.4163   ZX=    -9.2773
   XY=    98.5232   YY=    30.5612   ZY=   -17.4015
   XZ=    -9.8982   YZ=   -18.5942   ZZ=    52.0453
   Eigenvalues:   -35.5371    50.8035   186.7618
     45  C    Isotropic =    67.6798   Anisotropy =   174.1186
   XX=    37.8511   YX=   -59.8810   ZX=    37.5890
   XY=   -61.3867   YY=   158.2599   ZY=     8.1164
   XZ=    39.8580   YZ=     9.8874   ZZ=     6.9284
   Eigenvalues:   -29.6517    48.9323   183.7589
     46  C    Isotropic =    65.0378   Anisotropy =   182.0075
   XX=   106.4890   YX=    58.1565   ZX=   -75.1935
   XY=    60.3718   YY=    84.9526   ZY=   -29.9626
   XZ=   -69.0742   YZ=   -27.3958   ZZ=     3.6717
   Eigenvalues:   -33.5271    42.2644   186.3761
     47  C    Isotropic =    68.2062   Anisotropy =   172.9137
   XX=     9.7179   YX=    42.1791   ZX=     3.9392
   XY=    40.2741   YY=    57.3392   ZY=   -71.4661
   XZ=     8.8932   YZ=   -77.3976   ZZ=   137.5617
   Eigenvalues:   -28.0204    49.1571   183.4820
     48  C    Isotropic =    68.4327   Anisotropy =   176.1214
   XX=   128.6617   YX=    75.2977   ZX=   -42.9452
   XY=    78.4026   YY=    72.0635   ZY=    18.3144
   XZ=   -42.6334   YZ=    17.4941   ZZ=     4.5730
   Eigenvalues:   -29.9889    49.4400   185.8470
     49  H    Isotropic =    28.9160   Anisotropy =     9.2796
   XX=    32.7214   YX=    -4.3113   ZX=    -1.6215
   XY=     1.2390   YY=    28.8247   ZY=    -0.9919
   XZ=    -7.3347   YZ=     0.8047   ZZ=    25.2018
   Eigenvalues:    23.0191    28.6265    35.1024
     50  H    Isotropic =    29.0690   Anisotropy =    14.4285
   XX=    22.5493   YX=     0.2339   ZX=     0.1351
   XY=     0.3801   YY=    38.6280   ZY=    -0.8504
   XZ=    -3.5381   YZ=     2.5588   ZZ=    26.0296
   Eigenvalues:    21.8336    26.6853    38.6880
     51  H    Isotropic =    24.3090   Anisotropy =     8.2465
   XX=    22.8437   YX=     0.3179   ZX=     1.8763
   XY=     0.0987   YY=    27.8732   ZY=    -3.0088
   XZ=     0.1346   YZ=    -4.6303   ZZ=    22.2101
   Eigenvalues:    19.9466    23.1737    29.8066
     52  H    Isotropic =    24.4105   Anisotropy =     9.1994
   XX=    21.7745   YX=    -4.2649   ZX=     0.7436
   XY=    -3.0970   YY=    21.3760   ZY=    -2.9225
   XZ=    -0.1037   YZ=    -0.5159   ZZ=    30.0810
   Eigenvalues:    17.8009    24.8872    30.5434
     53  H    Isotropic =    24.0350   Anisotropy =     6.4976
   XX=    25.8961   YX=     2.2874   ZX=     0.5258
   XY=     1.6618   YY=    25.8545   ZY=    -2.6653
   XZ=    -0.3903   YZ=    -2.9136   ZZ=    20.3543
   Eigenvalues:    19.0812    24.6571    28.3667
     54  H    Isotropic =    24.0686   Anisotropy =     7.1819
   XX=    21.6529   YX=    -3.1837   ZX=    -1.9392
   XY=    -3.3153   YY=    22.3327   ZY=    -0.4935
   XZ=    -1.9598   YZ=     0.2178   ZZ=    28.2202
   Eigenvalues:    18.4765    24.8728    28.8565
     55  H    Isotropic =    24.1319   Anisotropy =    14.8799
   XX=    28.1232   YX=     7.4055   ZX=    -3.0746
   XY=     5.5442   YY=    25.6416   ZY=    -3.6652
   XZ=    -0.1031   YZ=    -1.8264   ZZ=    18.6310
   Eigenvalues:    17.6171    20.7268    34.0519
     56  H    Isotropic =    24.3286   Anisotropy =    14.9937
   XX=    19.1901   YX=    -1.4226   ZX=    -2.5497
   XY=    -1.7666   YY=    20.5136   ZY=     4.9166
   XZ=    -3.3142   YZ=    -0.4470   ZZ=    33.2821
   Eigenvalues:    18.0047    20.6567    34.3244
     57  H    Isotropic =    24.2111   Anisotropy =     7.4279
   XX=    27.2988   YX=     3.0298   ZX=     0.1716
   XY=     2.1256   YY=    24.7660   ZY=    -2.5779
   XZ=    -0.0265   YZ=    -2.9728   ZZ=    20.5686
   Eigenvalues:    18.9937    24.4767    29.1631
     58  H    Isotropic =    23.9974   Anisotropy =     6.7786
   XX=    21.8883   YX=    -2.9781   ZX=    -1.9945
   XY=    -3.3558   YY=    22.4579   ZY=     0.2959
   XZ=    -1.8570   YZ=     0.2414   ZZ=    27.6460
   Eigenvalues:    18.8123    24.6635    28.5164
     59  H    Isotropic =    24.5547   Anisotropy =     7.6944
   XX=    25.7369   YX=     2.6885   ZX=    -0.2723
   XY=     2.5363   YY=    26.3564   ZY=    -3.6177
   XZ=     0.1153   YZ=    -3.4818   ZZ=    21.5710
   Eigenvalues:    19.4464    24.5335    29.6843
     60  H    Isotropic =    24.5060   Anisotropy =     7.3781
   XX=    20.6969   YX=    -1.7020   ZX=    -1.1413
   XY=    -1.3252   YY=    23.5858   ZY=     0.0158
   XZ=    -1.2224   YZ=    -1.2344   ZZ=    29.2354
   Eigenvalues:    19.8614    24.2319    29.4248
     61  H    Isotropic =    24.6331   Anisotropy =     4.3012
   XX=    27.2624   YX=     0.9778   ZX=     1.1788
   XY=     0.1937   YY=    24.8438   ZY=    -2.7489
   XZ=     1.1525   YZ=    -2.9334   ZZ=    21.7929
   Eigenvalues:    19.8648    26.5339    27.5005
     62  H    Isotropic =    24.4223   Anisotropy =     3.4859
   XX=    22.2139   YX=    -2.8491   ZX=    -1.0562
   XY=    -2.8677   YY=    24.6670   ZY=    -0.0269
   XZ=    -0.5919   YZ=    -0.5301   ZZ=    26.3859
   Eigenvalues:    20.2152    26.3055    26.7462
     63  H    Isotropic =    26.5534   Anisotropy =     9.5228
   XX=    30.6564   YX=     4.3152   ZX=    -0.0346
   XY=     6.5320   YY=    19.7293   ZY=    -1.3978
   XZ=     0.7744   YZ=    -1.4137   ZZ=    29.2747
   Eigenvalues:    17.3207    29.4376    32.9020
     64  H    Isotropic =    24.2921   Anisotropy =    10.8612
   XX=    26.2066   YX=    -2.9266   ZX=     4.5069
   XY=    -0.3158   YY=    22.1840   ZY=    -3.9444
   XZ=     5.2728   YZ=    -2.5979   ZZ=    24.4856
   Eigenvalues:    19.2607    22.0826    31.5329
     65  H    Isotropic =    23.5904   Anisotropy =    13.3619
   XX=    29.3927   YX=    -5.2248   ZX=    -1.5827
   XY=    -5.1191   YY=    21.7463   ZY=     1.2236
   XZ=    -1.9835   YZ=     2.9023   ZZ=    19.6320
   Eigenvalues:    18.1169    20.1559    32.4983
     66  H    Isotropic =    24.9634   Anisotropy =    11.2311
   XX=    21.6756   YX=    -3.8462   ZX=     3.1165
   XY=    -4.7669   YY=    23.1420   ZY=    -0.6301
   XZ=     5.3047   YZ=    -0.7204   ZZ=    30.0725
   Eigenvalues:    17.3725    25.0669    32.4508
     67  H    Isotropic =    25.8114   Anisotropy =    14.1216
   XX=    29.1811   YX=     4.9072   ZX=    -6.0139
   XY=     5.5238   YY=    22.1878   ZY=    -4.7116
   XZ=    -2.7490   YZ=    -2.0241   ZZ=    26.0654
   Eigenvalues:    19.2221    22.9864    35.2259
     68  H    Isotropic =    24.7011   Anisotropy =     6.7073
   XX=    24.3492   YX=     2.3084   ZX=    -0.2763
   XY=     1.7709   YY=    23.5272   ZY=     3.1033
   XZ=     1.1263   YZ=     3.9964   ZZ=    26.2270
   Eigenvalues:    20.5003    24.4304    29.1726
     69  H    Isotropic =    24.6188   Anisotropy =    10.9200
   XX=    22.2605   YX=    -1.9296   ZX=    -0.1697
   XY=    -3.4195   YY=    29.5130   ZY=     4.4654
   XZ=    -0.5185   YZ=     3.3720   ZZ=    22.0829
   Eigenvalues:    20.0559    21.9017    31.8988
     70  H    Isotropic =    26.7276   Anisotropy =     9.9913
   XX=    23.5817   YX=    -4.0246   ZX=     3.0284
   XY=     0.3965   YY=    28.7652   ZY=     3.7373
   XZ=     3.3593   YZ=     6.2415   ZZ=    27.8358
   Eigenvalues:    19.8266    26.9676    33.3885
     71  H    Isotropic =    25.2110   Anisotropy =     9.5424
   XX=    29.1734   YX=     3.4561   ZX=    -3.1681
   XY=     4.0491   YY=    21.5281   ZY=    -1.3672
   XZ=    -1.1179   YZ=    -0.8139   ZZ=    24.9314
   Eigenvalues:    19.9851    24.0753    31.5726
     72  H    Isotropic =    24.6690   Anisotropy =     5.9061
   XX=    24.7628   YX=    -1.9422   ZX=     2.6225
   XY=    -0.2842   YY=    22.5609   ZY=     1.1721
   XZ=     2.7283   YZ=     1.5588   ZZ=    26.6832
   Eigenvalues:    21.0006    24.3999    28.6064
     73  H    Isotropic =    24.5019   Anisotropy =     6.8826
   XX=    25.6431   YX=    -2.4686   ZX=    -0.5093
   XY=    -2.2003   YY=    25.4207   ZY=     2.9235
   XZ=    -0.8601   YZ=     3.5255   ZZ=    22.4418
   Eigenvalues:    20.2787    24.1366    29.0903
     74  H    Isotropic =    25.3358   Anisotropy =     4.7508
   XX=    23.4569   YX=    -3.3036   ZX=     0.1459
   XY=    -3.0722   YY=    24.8866   ZY=    -0.8642
   XZ=     1.4915   YZ=    -0.2288   ZZ=    27.6641
   Eigenvalues:    20.8913    26.6132    28.5030
     75  H    Isotropic =    25.2132   Anisotropy =     6.3248
   XX=    26.0557   YX=     2.1893   ZX=    -1.9752
   XY=     2.5724   YY=    21.6948   ZY=    -1.1827
   XZ=    -1.3789   YZ=    -0.5890   ZZ=    27.8890
   Eigenvalues:    20.6441    25.5657    29.4297
     76  H    Isotropic =    25.4922   Anisotropy =     5.7121
   XX=    26.6777   YX=     0.4864   ZX=     3.3965
   XY=     0.4102   YY=    24.8627   ZY=     1.1778
   XZ=     3.0255   YZ=     0.4711   ZZ=    24.9362
   Eigenvalues:    22.4173    24.7590    29.3002
     77  H    Isotropic =    24.5956   Anisotropy =     5.7405
   XX=    26.8971   YX=    -1.9466   ZX=     0.2284
   XY=    -2.2031   YY=    24.7239   ZY=     2.2758
   XZ=    -0.1950   YZ=     2.4540   ZZ=    22.1658
   Eigenvalues:    20.5555    24.8086    28.4226
     78  H    Isotropic =    26.0828   Anisotropy =     8.3328
   XX=    22.2967   YX=     1.4733   ZX=     0.6821
   XY=     1.7989   YY=    24.6820   ZY=     0.7394
   XZ=     3.0254   YZ=    -1.3022   ZZ=    31.2699
   Eigenvalues:    21.1491    25.4613    31.6381
     79  H    Isotropic =    25.1453   Anisotropy =     4.4940
   XX=    26.9611   YX=     2.3968   ZX=     0.0419
   XY=     2.6093   YY=    21.9696   ZY=    -0.0787
   XZ=     0.9026   YZ=     0.3109   ZZ=    26.5052
   Eigenvalues:    20.9297    26.3649    28.1414
     80  H    Isotropic =    25.0759   Anisotropy =     3.0643
   XX=    25.8018   YX=    -2.2578   ZX=     1.5942
   XY=    -1.0948   YY=    24.9156   ZY=     1.7637
   XZ=     1.5389   YZ=     1.7689   ZZ=    24.5103
   Eigenvalues:    21.6691    26.4399    27.1188
     81  H    Isotropic =    24.8065   Anisotropy =     3.5582
   XX=    26.4297   YX=    -0.1251   ZX=     0.9323
   XY=    -0.1460   YY=    25.1955   ZY=     2.6501
   XZ=     0.9623   YZ=     2.6891   ZZ=    22.7944
   Eigenvalues:    20.9298    26.3111    27.1787
     82  H    Isotropic =    25.6305   Anisotropy =     5.0358
   XX=    23.0196   YX=    -1.6331   ZX=    -1.5349
   XY=    -1.4914   YY=    25.3233   ZY=     0.9303
   XZ=     0.1022   YZ=     0.8391   ZZ=    28.5486
   Eigenvalues:    22.2208    25.6829    28.9877
 End of Minotr F.D. properties file   721 does not exist.
 End of Minotr F.D. properties file   722 does not exist.
 End of Minotr F.D. properties file   788 does not exist.
 Leave Link 1002 at Sat Aug 12 03:12:32 2023, MaxMem=  4026531840 cpu:            3023.5 elap:             105.0
 (Enter /sw/arch/Centos8/EB_production/2021/software/Gaussian/g16.c01/l601.exe)
 Copying SCF densities to generalized density rwf, IOpCl= 0 IROHF=0.

 **********************************************************************

            Population analysis using the SCF Density.

 **********************************************************************

 Alpha  occ. eigenvalues --  -77.21038 -77.20827 -14.39386 -14.39288 -10.28432
 Alpha  occ. eigenvalues --  -10.27433 -10.25537 -10.25212 -10.25105 -10.24744
 Alpha  occ. eigenvalues --  -10.24538 -10.24502 -10.24337 -10.24276 -10.24237
 Alpha  occ. eigenvalues --  -10.24202 -10.24167 -10.24158 -10.24116 -10.24076
 Alpha  occ. eigenvalues --  -10.24026 -10.24006 -10.23933 -10.23889 -10.23824
 Alpha  occ. eigenvalues --  -10.23718 -10.23713 -10.23668 -10.23559 -10.23521
 Alpha  occ. eigenvalues --  -10.23517 -10.23473 -10.23470 -10.23406 -10.23400
 Alpha  occ. eigenvalues --  -10.23362 -10.23341 -10.23311 -10.23281 -10.23266
 Alpha  occ. eigenvalues --  -10.23254 -10.23214 -10.23196 -10.23144 -10.23144
 Alpha  occ. eigenvalues --  -10.23093 -10.23073 -10.23047  -6.61727  -6.61605
 Alpha  occ. eigenvalues --   -4.75899  -4.75777  -4.75691  -4.75573  -4.75225
 Alpha  occ. eigenvalues --   -4.75105  -0.94879  -0.93601  -0.89683  -0.88782
 Alpha  occ. eigenvalues --   -0.87702  -0.87274  -0.87090  -0.86843  -0.83985
 Alpha  occ. eigenvalues --   -0.83033  -0.81397  -0.78130  -0.77929  -0.77570
 Alpha  occ. eigenvalues --   -0.76385  -0.76160  -0.75956  -0.75831  -0.75607
 Alpha  occ. eigenvalues --   -0.75454  -0.75334  -0.74753  -0.74246  -0.72073
 Alpha  occ. eigenvalues --   -0.66811  -0.65848  -0.64833  -0.64304  -0.62961
 Alpha  occ. eigenvalues --   -0.62476  -0.62260  -0.62062  -0.61519  -0.61474
 Alpha  occ. eigenvalues --   -0.61351  -0.60873  -0.60630  -0.59077  -0.57873
 Alpha  occ. eigenvalues --   -0.57603  -0.55077  -0.54431  -0.53930  -0.53610
 Alpha  occ. eigenvalues --   -0.52865  -0.52721  -0.52489  -0.51781  -0.51419
 Alpha  occ. eigenvalues --   -0.50790  -0.48458  -0.47625  -0.47248  -0.47071
 Alpha  occ. eigenvalues --   -0.46730  -0.46472  -0.46289  -0.46169  -0.46088
 Alpha  occ. eigenvalues --   -0.45949  -0.45767  -0.45438  -0.44858  -0.44566
 Alpha  occ. eigenvalues --   -0.44383  -0.43955  -0.43628  -0.43486  -0.43302
 Alpha  occ. eigenvalues --   -0.43163  -0.43082  -0.42655  -0.42214  -0.41898
 Alpha  occ. eigenvalues --   -0.41684  -0.41083  -0.40515  -0.40230  -0.39531
 Alpha  occ. eigenvalues --   -0.38880  -0.38480  -0.38241  -0.37335  -0.37173
 Alpha  occ. eigenvalues --   -0.36815  -0.36662  -0.36252  -0.36140  -0.35871
 Alpha  occ. eigenvalues --   -0.35641  -0.35394  -0.35286  -0.34725  -0.34374
 Alpha  occ. eigenvalues --   -0.33784  -0.33569  -0.33340  -0.30910  -0.30823
 Alpha  occ. eigenvalues --   -0.29766  -0.29184  -0.28248  -0.28004  -0.27165
 Alpha  occ. eigenvalues --   -0.26796  -0.26450  -0.26352  -0.26036  -0.25799
 Alpha  occ. eigenvalues --   -0.25266  -0.24466  -0.23439  -0.22584  -0.21646
 Alpha  occ. eigenvalues --   -0.19108
 Alpha virt. eigenvalues --   -0.05167  -0.03807  -0.02746  -0.02150  -0.01506
 Alpha virt. eigenvalues --   -0.00913  -0.00829  -0.00666  -0.00344   0.00024
 Alpha virt. eigenvalues --    0.00237   0.00402   0.01875   0.03408   0.05280
 Alpha virt. eigenvalues --    0.05497   0.07427   0.07543   0.07668   0.08022
 Alpha virt. eigenvalues --    0.08239   0.08396   0.08594   0.08889   0.09681
 Alpha virt. eigenvalues --    0.09873   0.09929   0.10517   0.10964   0.11503
 Alpha virt. eigenvalues --    0.11610   0.12003   0.12444   0.12879   0.13200
 Alpha virt. eigenvalues --    0.13476   0.13781   0.13965   0.14159   0.14397
 Alpha virt. eigenvalues --    0.14846   0.15302   0.15381   0.15524   0.16066
 Alpha virt. eigenvalues --    0.16216   0.16299   0.16801   0.16839   0.17288
 Alpha virt. eigenvalues --    0.17588   0.17869   0.18171   0.18357   0.18580
 Alpha virt. eigenvalues --    0.19077   0.19792   0.20180   0.20448   0.21421
 Alpha virt. eigenvalues --    0.21779   0.22171   0.23195   0.25308   0.26021
 Alpha virt. eigenvalues --    0.26255   0.26464   0.27030   0.27523   0.27909
 Alpha virt. eigenvalues --    0.28270   0.28728   0.28789   0.29443   0.29858
 Alpha virt. eigenvalues --    0.29980   0.30154   0.30301   0.30535   0.30698
 Alpha virt. eigenvalues --    0.30819   0.30901   0.31399   0.31552   0.31644
 Alpha virt. eigenvalues --    0.32018   0.32357   0.32513   0.33109   0.33328
 Alpha virt. eigenvalues --    0.33709   0.34282   0.34376   0.34893   0.35370
 Alpha virt. eigenvalues --    0.36738   0.37222   0.37743   0.37837   0.38093
 Alpha virt. eigenvalues --    0.38438   0.38757   0.38875   0.39653   0.39873
 Alpha virt. eigenvalues --    0.40334   0.40897   0.40935   0.41309   0.41651
 Alpha virt. eigenvalues --    0.42177   0.42882   0.43170   0.43444   0.43772
 Alpha virt. eigenvalues --    0.44156   0.44626   0.44764   0.45025   0.45132
 Alpha virt. eigenvalues --    0.45286   0.45685   0.46110   0.46248   0.46623
 Alpha virt. eigenvalues --    0.46923   0.47221   0.47348   0.47593   0.47736
 Alpha virt. eigenvalues --    0.48203   0.48298   0.48516   0.48650   0.49013
 Alpha virt. eigenvalues --    0.49319   0.49507   0.49697   0.49934   0.50163
 Alpha virt. eigenvalues --    0.50295   0.50400   0.50713   0.50906   0.50987
 Alpha virt. eigenvalues --    0.51278   0.51454   0.51645   0.52000   0.52189
 Alpha virt. eigenvalues --    0.52710   0.52890   0.53062   0.53463   0.53734
 Alpha virt. eigenvalues --    0.53940   0.54874   0.55145   0.55361   0.55703
 Alpha virt. eigenvalues --    0.56196   0.56377   0.57052   0.57345   0.58020
 Alpha virt. eigenvalues --    0.58027   0.58277   0.58433   0.58762   0.59465
 Alpha virt. eigenvalues --    0.60096   0.60227   0.60862   0.61093   0.61536
 Alpha virt. eigenvalues --    0.61955   0.62773   0.63000   0.63110   0.63339
 Alpha virt. eigenvalues --    0.64166   0.64313   0.64489   0.65274   0.65554
 Alpha virt. eigenvalues --    0.66024   0.66505   0.67178   0.67375   0.67518
 Alpha virt. eigenvalues --    0.68075   0.68452   0.68657   0.68689   0.69093
 Alpha virt. eigenvalues --    0.69438   0.69780   0.69805   0.69988   0.70184
 Alpha virt. eigenvalues --    0.70330   0.70467   0.70863   0.70918   0.71230
 Alpha virt. eigenvalues --    0.71379   0.71580   0.71743   0.72072   0.72311
 Alpha virt. eigenvalues --    0.72496   0.72621   0.72988   0.73092   0.73268
 Alpha virt. eigenvalues --    0.73566   0.74012   0.74072   0.74230   0.74708
 Alpha virt. eigenvalues --    0.74902   0.75066   0.75335   0.75548   0.75691
 Alpha virt. eigenvalues --    0.75781   0.76034   0.76541   0.76843   0.76936
 Alpha virt. eigenvalues --    0.77074   0.77558   0.77774   0.77867   0.78083
 Alpha virt. eigenvalues --    0.78296   0.78542   0.78599   0.78989   0.79344
 Alpha virt. eigenvalues --    0.79631   0.79786   0.80026   0.80264   0.80455
 Alpha virt. eigenvalues --    0.80912   0.80979   0.81407   0.81972   0.82380
 Alpha virt. eigenvalues --    0.82513   0.82868   0.83341   0.83739   0.83832
 Alpha virt. eigenvalues --    0.83924   0.84292   0.84760   0.84972   0.85409
 Alpha virt. eigenvalues --    0.85817   0.86226   0.86687   0.87658   0.87933
 Alpha virt. eigenvalues --    0.88404   0.88926   0.89130   0.89367   0.90088
 Alpha virt. eigenvalues --    0.91099   0.91780   0.92150   0.92381   0.92697
 Alpha virt. eigenvalues --    0.93040   0.93935   0.94615   0.95107   0.95775
 Alpha virt. eigenvalues --    0.96614   0.96760   0.97809   0.97924   0.98011
 Alpha virt. eigenvalues --    0.98804   0.99721   1.00683   1.01512   1.02532
 Alpha virt. eigenvalues --    1.03343   1.04384   1.04710   1.05415   1.06386
 Alpha virt. eigenvalues --    1.07188   1.08569   1.09656   1.10870   1.11256
 Alpha virt. eigenvalues --    1.11639   1.12553   1.13575   1.14410   1.15171
 Alpha virt. eigenvalues --    1.15663   1.15895   1.16845   1.17112   1.18076
 Alpha virt. eigenvalues --    1.18843   1.19262   1.20183   1.20616   1.21069
 Alpha virt. eigenvalues --    1.22087   1.23126   1.23741   1.24636   1.24905
 Alpha virt. eigenvalues --    1.25460   1.26041   1.26230   1.26743   1.27157
 Alpha virt. eigenvalues --    1.27459   1.28137   1.30024   1.30357   1.30552
 Alpha virt. eigenvalues --    1.31568   1.32027   1.32317   1.32594   1.33629
 Alpha virt. eigenvalues --    1.34564   1.35029   1.35865   1.36924   1.37712
 Alpha virt. eigenvalues --    1.38995   1.39416   1.39556   1.40128   1.41207
 Alpha virt. eigenvalues --    1.41430   1.42670   1.43235   1.44423   1.45018
 Alpha virt. eigenvalues --    1.45156   1.45993   1.46282   1.46554   1.47875
 Alpha virt. eigenvalues --    1.48145   1.48411   1.48893   1.48946   1.49140
 Alpha virt. eigenvalues --    1.49454   1.49646   1.49761   1.50083   1.50379
 Alpha virt. eigenvalues --    1.50704   1.50815   1.50853   1.51585   1.51771
 Alpha virt. eigenvalues --    1.52005   1.52025   1.53688   1.53746   1.54809
 Alpha virt. eigenvalues --    1.55962   1.56833   1.57844   1.59070   1.59839
 Alpha virt. eigenvalues --    1.59941   1.61925   1.63401   1.64169   1.65369
 Alpha virt. eigenvalues --    1.66928   1.68203   1.69398   1.72016   1.74087
 Alpha virt. eigenvalues --    1.75074   1.75610   1.76339   1.76438   1.76784
 Alpha virt. eigenvalues --    1.77480   1.77970   1.79315   1.79678   1.80590
 Alpha virt. eigenvalues --    1.81001   1.81309   1.81544   1.82060   1.82467
 Alpha virt. eigenvalues --    1.82767   1.83013   1.83959   1.84659   1.85554
 Alpha virt. eigenvalues --    1.85846   1.86607   1.88230   1.88764   1.88949
 Alpha virt. eigenvalues --    1.89113   1.89595   1.89704   1.90343   1.90833
 Alpha virt. eigenvalues --    1.91239   1.91481   1.92932   1.94031   1.94816
 Alpha virt. eigenvalues --    1.95728   1.96618   1.97621   1.98030   1.98960
 Alpha virt. eigenvalues --    2.02168   2.02830   2.02873   2.03881   2.04195
 Alpha virt. eigenvalues --    2.05168   2.05704   2.05794   2.06641   2.07430
 Alpha virt. eigenvalues --    2.07637   2.08433   2.08697   2.08886   2.09197
 Alpha virt. eigenvalues --    2.09324   2.09346   2.09423   2.09614   2.10226
 Alpha virt. eigenvalues --    2.10465   2.11143   2.11443   2.11707   2.12609
 Alpha virt. eigenvalues --    2.13968   2.14978   2.15184   2.15716   2.15779
 Alpha virt. eigenvalues --    2.16020   2.16562   2.16964   2.17413   2.17618
 Alpha virt. eigenvalues --    2.18126   2.19478   2.20331   2.22829   2.23297
 Alpha virt. eigenvalues --    2.23463   2.25214   2.25651   2.26276   2.27397
 Alpha virt. eigenvalues --    2.27840   2.30134   2.30424   2.30666   2.30765
 Alpha virt. eigenvalues --    2.30861   2.31101   2.31350   2.31413   2.31562
 Alpha virt. eigenvalues --    2.31909   2.31978   2.32849   2.33232   2.33591
 Alpha virt. eigenvalues --    2.33974   2.34495   2.34730   2.36305   2.37008
 Alpha virt. eigenvalues --    2.38380   2.40495   2.42973   2.45122   2.45640
 Alpha virt. eigenvalues --    2.46555   2.47192   2.47483   2.47889   2.48107
 Alpha virt. eigenvalues --    2.48435   2.48913   2.49534   2.49589   2.50288
 Alpha virt. eigenvalues --    2.51764   2.52519   2.52947   2.53596   2.55000
 Alpha virt. eigenvalues --    2.55991   2.56770   2.57824   2.59598   2.60376
 Alpha virt. eigenvalues --    2.61460   2.62345   2.64029   2.64696   2.65617
 Alpha virt. eigenvalues --    2.65735   2.65939   2.66089   2.66203   2.67053
 Alpha virt. eigenvalues --    2.67131   2.67599   2.68223   2.68775   2.69066
 Alpha virt. eigenvalues --    2.69432   2.69966   2.70358   2.70442   2.70902
 Alpha virt. eigenvalues --    2.71401   2.71978   2.72702   2.73576   2.73916
 Alpha virt. eigenvalues --    2.74119   2.74497   2.74712   2.75989   2.76705
 Alpha virt. eigenvalues --    2.76976   2.78355   2.79019   2.81808   2.83614
 Alpha virt. eigenvalues --    2.84498   2.86592   2.90904   2.92386   2.98027
 Alpha virt. eigenvalues --    2.99467   3.00503   3.00611   3.01486   3.02939
 Alpha virt. eigenvalues --    3.04903   3.06408   3.12509   3.17249   3.35617
 Alpha virt. eigenvalues --    3.35791   3.36091   3.36864   3.37179   3.37862
 Alpha virt. eigenvalues --    3.46623   3.52691
          Condensed to atoms (all electrons):
 Mulliken charges:
               1
     1  P    0.550310
     2  P    0.505311
     3  N   -0.543685
     4  N   -0.565948
     5  C   -0.100640
     6  C   -0.014189
     7  C    0.034171
     8  C    0.063729
     9  C    0.136376
    10  C    0.169969
    11  C    0.086892
    12  C    0.071441
    13  C   -0.142031
    14  C   -0.140566
    15  C   -0.120499
    16  C   -0.118758
    17  C   -0.167055
    18  C   -0.152139
    19  C   -0.134918
    20  C   -0.139451
    21  C   -0.074535
    22  C   -0.088036
    23  C   -0.079491
    24  C   -0.088583
    25  C   -0.180517
    26  C   -0.193754
    27  C   -0.122753
    28  C   -0.107861
    29  C   -0.141794
    30  C   -0.110947
    31  C   -0.130074
    32  C   -0.160424
    33  C   -0.125752
    34  C   -0.079686
    35  C   -0.144553
    36  C   -0.167272
    37  C   -0.091364
    38  C   -0.092904
    39  C   -0.077338
    40  C   -0.082064
    41  C   -0.085001
    42  C   -0.078989
    43  C   -0.089412
    44  C   -0.074309
    45  C   -0.093373
    46  C   -0.087394
    47  C   -0.097081
    48  C   -0.094605
    49  H    0.271785
    50  H    0.299971
    51  H    0.075173
    52  H    0.091465
    53  H    0.084104
    54  H    0.083478
    55  H    0.121095
    56  H    0.105218
    57  H    0.084803
    58  H    0.083607
    59  H    0.098773
    60  H    0.092539
    61  H    0.098113
    62  H    0.093735
    63  H    0.165138
    64  H    0.083153
    65  H    0.105691
    66  H    0.113442
    67  H    0.118842
    68  H    0.111307
    69  H    0.097925
    70  H    0.159186
    71  H    0.094738
    72  H    0.091638
    73  H    0.093694
    74  H    0.090419
    75  H    0.094436
[...]
   79      26.6782        1.9056      24.7726         2.3889      24.2893
   88       0.4291       -0.7355       1.1645        -0.3638       0.7929
   99      -0.8840       -1.8043       0.9203        -1.4377       0.5537
  100      -0.3581       -1.5942       1.2360        -1.1597       0.8016
  102       1.3762        0.5742       0.8020         0.6197       0.7565
  168       0.6288       -0.5623       1.1911         1.3620      -0.7332
 Sum       25.9082       -5.6844      31.5926        -9.6668      35.5750

 Contributions to Isotropic shielding for atom   68 (    24.7012 ppm):
                         Standard Origin              Atomic Origin
 NLMO      Total    Paramagnetic  Diamagnetic   Paramagnetic  Diamagnetic
    3       0.0306       -0.4348       0.4653        -1.1365       1.1671
    6       0.2833        0.0882       0.1952        -0.7267       1.0100
   60      -0.1779       -3.1066       2.9287        -0.8945       0.7166
   61       3.0435       -1.3152       4.3587        -0.5478       3.5913
   66      -0.4691       -0.4297      -0.0394        -1.4003       0.9311
   72       0.3592       -0.1688       0.5280        -1.0854       1.4446
   80      -2.3386       -1.3598      -0.9788        -3.1801       0.8414
   81      26.4888        2.1771      24.3117         2.2228      24.2659
   90       0.4635       -0.7678       1.2313        -0.3307       0.7941
  102      -1.1363       -1.8635       0.7272        -1.7082       0.5720
  103      -0.4653       -1.7033       1.2380        -1.2353       0.7700
  168       0.1011        0.1186      -0.0175         1.7632      -1.6621
  169      -0.2369        0.2101      -0.4470         1.6154      -1.8522
 Sum       25.9459       -8.5556      34.5015        -6.6441      32.5900

 Contributions to Isotropic shielding for atom   69 (    24.6190 ppm):
                         Standard Origin              Atomic Origin
 NLMO      Total    Paramagnetic  Diamagnetic   Paramagnetic  Diamagnetic
    5      -0.3772       -0.1080      -0.2692        -1.3845       1.0074
    6      -0.4193        0.3689      -0.7881        -1.3593       0.9401
   64       0.3978       -3.3448       3.7426        -0.4128       0.8106
   66      -0.0394       -0.3221       0.2827        -1.2935       1.2541
   77       0.0009       -1.2905       1.2914        -0.0311       0.0320
   82      -2.8248       -0.5434      -2.2815        -3.7816       0.9568
   83      -0.0807       -1.9857       1.9050        -3.6010       3.5203
   84      26.7717        2.1798      24.5919         2.1156      24.6561
   92       0.5418       -0.8604       1.4021        -0.2496       0.7913
   93       1.9401       -1.0786       3.0187         0.5860       1.3541
  105      -0.4264       -1.9745       1.5482        -1.2157       0.7893
  169       0.8679       -0.1043       0.9722         1.9752      -1.1073
 Sum       26.3524       -9.0637      35.4161        -8.6523      35.0047

 Contributions to Isotropic shielding for atom   70 (    26.7275 ppm):
                         Standard Origin              Atomic Origin
 NLMO      Total    Paramagnetic  Diamagnetic   Paramagnetic  Diamagnetic
    1       0.0118       -0.3183       0.3300        -0.9950       1.0068
    4       0.1412       -0.2020       0.3432        -1.0449       1.1861
    6       0.2250       -0.8203       1.0453        -0.8471       1.0720
   10      -0.1847       -0.7901       0.6055        -1.1238       0.9392
   14      -1.0360       -0.3154      -0.7206        -0.8992      -0.1368
   19       1.2106        0.1785       1.0321         0.0827       1.1279
   26       0.6551       -0.5118       1.1670        -0.1588       0.8140
   61      -0.2429       -0.5948       0.3519        -1.0729       0.8300
   67       0.0420       -2.3781       2.4201        -0.7175       0.7595
   85      -1.5844       -2.1357       0.5513        -2.5475       0.9631
   86       1.0151       -2.6361       3.6512        -2.2371       3.2521
   87      26.0703        2.4292      23.6412         2.0875      23.9829
   95       0.4921       -0.7944       1.2865        -0.2851       0.7771
   96       1.1364       -1.2214       2.3577        -0.2542       1.3906
  107      -0.5429       -1.8600       1.3171        -1.3221       0.7792
  168      -0.3862        0.2265      -0.6126         1.3411      -1.7272
  169      -0.3827        0.0115      -0.3943         0.7884      -1.1712
 Sum       26.6398      -11.7327      38.3725        -9.2054      35.8452

 Contributions to Isotropic shielding for atom   71 (    25.2111 ppm):
                         Standard Origin              Atomic Origin
 NLMO      Total    Paramagnetic  Diamagnetic   Paramagnetic  Diamagnetic
   57      -0.4351        0.1905      -0.6256        -1.2380       0.8029
   58      -0.1282        0.8276      -0.9557        -1.4557       1.3275
   68      -1.0214       -3.2544       2.2331        -1.7759       0.7545
   69       2.1061        0.3984       1.7078        -1.5894       3.6955
   88      -4.0569       -0.4739      -3.5830        -4.7538       0.6969
   89      27.4696        1.9484      25.5212         2.8078      24.6618
   98       0.1469       -1.0201       1.1670         0.0258       0.1211
   99       0.2884       -1.0502       1.3386        -0.2066       0.4950
  108      -0.0919       -1.0010       0.9091        -0.8830       0.7911
  156       1.0613        0.6405       0.4207         1.1124      -0.0512
 Sum       25.3389       -2.7943      28.1331        -7.9564      33.2953

 Contributions to Isotropic shielding for atom   72 (    24.6689 ppm):
                         Standard Origin              Atomic Origin
 NLMO      Total    Paramagnetic  Diamagnetic   Paramagnetic  Diamagnetic
   60      -0.4487        0.1960      -0.6446        -1.2114       0.7628
   61       0.0458        0.7748      -0.7290        -1.2294       1.2752
   71      -2.0737       -2.7110       0.6373        -2.7103       0.6366
   72       1.2091        0.9790       0.2301        -2.4983       3.7074
   90      -3.9866       -0.7225      -3.2641        -4.7166       0.7300
   91      27.7507        2.0154      25.7353         3.0021      24.7486
  102       1.1388       -0.2236       1.3624         0.6282       0.5106
  157       1.4319        0.8322       0.5998         1.4824      -0.0505
 Sum       25.0673        1.1401      23.9272        -7.2534      32.3207

 Contributions to Isotropic shielding for atom   73 (    24.5018 ppm):
                         Standard Origin              Atomic Origin
 NLMO      Total    Paramagnetic  Diamagnetic   Paramagnetic  Diamagnetic
   63       2.6101        1.7952       0.8149         1.7313       0.8788
   64      -0.5681        0.2711      -0.8393        -1.3633       0.7952
   74      -1.3256       -3.2752       1.9496        -2.0853       0.7597
   75      -0.1606        0.9981      -1.1588        -0.9939       0.8333
   83       1.5158       -0.2827       1.7985         0.1906       1.3253
   92      -4.4913       -0.2862      -4.2051        -5.1998       0.7084
   93      -1.8453       -0.2845      -1.5607        -5.2186       3.3733
   94      27.6784        2.0418      25.6366         2.9645      24.7139
  104       0.2101       -1.0428       1.2528         0.0956       0.1144
  158       1.3574        0.7935       0.5639         1.4088      -0.0514
 Sum       24.9808        0.7284      24.2525        -8.4701      33.4510

 Contributions to Isotropic shielding for atom   74 (    25.3360 ppm):
                         Standard Origin              Atomic Origin
 NLMO      Total    Paramagnetic  Diamagnetic   Paramagnetic  Diamagnetic
   66       1.8683        1.2479       0.6204         0.9501       0.9181
   67      -0.5171        0.1903      -0.7074        -1.3624       0.8454
   76      -3.0876       -2.3037      -0.7839        -3.8051       0.7175
   85      -0.2261        0.0509      -0.2769        -1.0286       0.8025
   86       1.3487        0.6359       0.7128         0.1741       1.1745
   95      -4.0185       -1.1495      -2.8690        -4.7003       0.6818
   96      -0.9139        0.9923      -1.9062        -4.3300       3.4161
   97      28.0275        2.0830      25.9445         3.2823      24.7452
  159       1.8451        1.0481       0.7970         1.8963      -0.0512
 Sum       24.3264        2.7951      21.5312        -8.9236      33.2500

 Contributions to Isotropic shielding for atom   75 (    25.2130 ppm):
                         Standard Origin              Atomic Origin
 NLMO      Total    Paramagnetic  Diamagnetic   Paramagnetic  Diamagnetic
   56      -0.6165        0.2434      -0.8599        -1.4104       0.7939
   58       2.0078        1.4996       0.5083         1.0930       0.9148
   69       1.6603        0.3317       1.3286         0.4396       1.2207
   78      -2.4165       -2.7538       0.3373        -3.1740       0.7574
   79       0.0975        1.1092      -1.0118        -0.7078       0.8053
   88       0.1195       -0.9375       1.0570        -0.0224       0.1419
   98      -4.4260       -0.6640      -3.7620        -5.1164       0.6904
   99      -1.4115        0.7552      -2.1667        -4.8415       3.4300
  100      27.9323        2.0733      25.8590         3.2385      24.6937
  160       1.7676        1.0115       0.7561         1.8185      -0.0509
 Sum       24.7145        2.6685      22.0460        -8.6828      33.3973

 Contributions to Isotropic shielding for atom   76 (    25.4923 ppm):
                         Standard Origin              Atomic Origin
 NLMO      Total    Paramagnetic  Diamagnetic   Paramagnetic  Diamagnetic
   59      -0.4163        0.1078      -0.5242        -1.2272       0.8109
   61       1.6279        1.0085       0.6194         0.7494       0.8784
   72       1.6345       -0.1814       1.8159         0.4284       1.2061
   80      -1.3297       -2.8041       1.4744        -2.0826       0.7529
   90       0.0867       -0.9325       1.0192        -0.0317       0.1185
  101      -3.7753       -0.6393      -3.1360        -4.4786       0.7033
  102      -1.1144       -0.1857      -0.9287        -4.5274       3.4130
  103      27.5118        2.0875      25.4243         2.8711      24.6407
  161       1.1565        0.6909       0.4656         1.2070      -0.0505
 Sum       25.3817       -0.8483      26.2299        -7.0916      32.4733

 Contributions to Isotropic shielding for atom   77 (    24.5956 ppm):
                         Standard Origin              Atomic Origin
 NLMO      Total    Paramagnetic  Diamagnetic   Paramagnetic  Diamagnetic
   62      -0.6241        0.3498      -0.9739        -1.4320       0.8079
   63      -0.2001        1.1715      -1.3716        -1.6362       1.4361
   82      -2.0183       -3.0286       1.0103        -2.6374       0.6190
   83       1.1646        1.2719      -0.1073        -2.4206       3.5852
   84       0.1170        1.1636      -1.0466        -0.7146       0.8316
   92       0.1966       -1.0359       1.2325         0.0623       0.1343
   93       1.3626       -0.1591       1.5217         0.8441       0.5185
  104      -4.6172       -0.4003      -4.2169        -5.3444       0.7272
  105      27.8631        2.0511      25.8120         3.1631      24.7000
  162       1.6690        0.9549       0.7142         1.7194      -0.0503
 Sum       24.9132        2.3389      22.5743        -8.3963      33.3095

 Contributions to Isotropic shielding for atom   78 (    26.0829 ppm):
                         Standard Origin              Atomic Origin
 NLMO      Total    Paramagnetic  Diamagnetic   Paramagnetic  Diamagnetic
   31      -0.2903       -0.2366      -0.0537        -1.0458       0.7556
   61      -0.4201       -0.3246      -0.0955        -1.2725       0.8524
   65      -0.2142        0.0385      -0.2527        -1.0215       0.8073
   66       0.1569        0.5486      -0.3917        -1.1572       1.3141
   85      -0.6811       -3.1277       2.4466        -1.3249       0.6438
   86       2.4421       -0.3925       2.8346        -1.2088       3.6510
   87      -0.2013       -0.0953      -0.1060        -1.1584       0.9571
   96      -0.2545       -1.3890       1.1345        -0.7621       0.5076
  106      -3.3006       -0.6183      -2.6823        -3.9848       0.6842
  107      27.1775        1.8546      25.3229         2.4645      24.7130
  111      -0.2286       -1.2852       1.0565        -0.9983       0.7696
 Sum       24.1860       -5.0275      29.2134       -11.4699      35.6558

 Contributions to Isotropic shielding for atom   79 (    25.1453 ppm):
                         Standard Origin              Atomic Origin
 NLMO      Total    Paramagnetic  Diamagnetic   Paramagnetic  Diamagnetic
   56      -0.6450        0.1974      -0.8425        -1.4781       0.8331
   57      -0.4130        0.0924      -0.5054        -1.2502       0.8372
   58       0.6320        0.6239       0.0081        -0.7048       1.3368
   69       2.4601        1.4787       0.9815         1.6355       0.8247
   88      -3.3693       -2.0917      -1.2776        -4.1644       0.7950
   89       0.2974        1.0207      -0.7233        -0.4455       0.7429
   98      -4.2881       -1.3091      -2.9790        -5.0901       0.8019
   99      -0.8053        1.5384      -2.3437        -4.1154       3.3101
  108      28.1554        2.1710      25.9844         3.4710      24.6844
  164       2.1324        1.2228       0.9097         2.1841      -0.0517
 Sum       24.1566        4.9444      19.2122        -9.9578      34.1144

 Contributions to Isotropic shielding for atom   80 (    25.0760 ppm):
                         Standard Origin              Atomic Origin
 NLMO      Total    Paramagnetic  Diamagnetic   Paramagnetic  Diamagnetic
   59      -0.3720        0.0589      -0.4309        -1.1349       0.7629
   60      -0.4668        0.1122      -0.5790        -1.3046       0.8378
   61       0.3802        0.6901      -0.3098        -0.8861       1.2663
   72       1.7401        0.8000       0.9401         0.9224       0.8177
   90      -3.7327       -1.4727      -2.2600        -4.5077       0.7750
  101      -3.3969       -1.8647      -1.5322        -4.2138       0.8169
  102       0.1471        1.4362      -1.2890        -3.1555       3.3026
  109      28.0372        2.1889      25.8483         3.3795      24.6577
  165       1.8929        1.0932       0.7996         1.9443      -0.0515
 Sum       24.2291        3.0421      21.1870        -8.9564      33.1855

 Contributions to Isotropic shielding for atom   81 (    24.8065 ppm):
                         Standard Origin              Atomic Origin
 NLMO      Total    Paramagnetic  Diamagnetic   Paramagnetic  Diamagnetic
   62      -0.6070        0.3041      -0.9111        -1.3983       0.7913
   63       0.8405        1.3514      -0.5109        -0.4168       1.2573
   64      -0.5639        0.1533      -0.7172        -1.4226       0.8587
   83       1.6198        0.8048       0.8150         0.7221       0.8977
   92      -3.8444       -1.8479      -1.9965        -4.6314       0.7870
   93      -0.1361        2.1620      -2.2980        -3.4995       3.3634
   94       0.3202        1.0874      -0.7672        -0.4414       0.7616
  104      -4.2189       -1.3959      -2.8230        -4.9706       0.7517
  110      28.2717        2.1361      26.1356         3.5798      24.6919
  166       2.3238        1.3181       1.0057         2.3752      -0.0514
 Sum       24.0058        6.0733      17.9325       -10.1035      34.1093

 Contributions to Isotropic shielding for atom   82 (    25.6305 ppm):
                         Standard Origin              Atomic Origin
 NLMO      Total    Paramagnetic  Diamagnetic   Paramagnetic  Diamagnetic
   65      -0.1648       -0.0578      -0.1070        -1.0489       0.8841
   66       0.9766        0.3249       0.6517        -0.3413       1.3179
   67      -0.5625        0.1519      -0.7144        -1.3852       0.8227
   86       2.3313        1.3516       0.9798         1.5454       0.7860
   95      -4.1020       -1.0246      -3.0774        -4.8850       0.7830
   96      -0.9220        0.8370      -1.7590        -4.2262       3.3043
  106      -2.6057       -2.4690      -0.1367        -3.4115       0.8058
  111      27.9670        2.1341      25.8328         3.2085      24.7585
  167       1.7464        1.0155       0.7309         1.7975      -0.0511
 Sum       24.6643        2.2634      22.4008        -8.7468      33.4111
 
 Leave Link  607 at Sat Aug 12 03:16:27 2023, MaxMem=  4026531840 cpu:            1827.0 elap:             126.7
 (Enter /sw/arch/Centos8/EB_production/2021/software/Gaussian/g16.c01/l9999.exe)
 Unable to Open any file for archive entry.
 1\1\GINC-TCN95\SP\RPBE1PBE\def2SVPP\C44H34N2P2\ADARSH\12-Aug-2023\0\\#
 p pop=nbo NMR pbe1pbe/def2svpp empiricaldispersion=gd3bj integral=grid
 =ultrafinegrid scf=(xqc,maxconventionalcycles=90) nosymm\\Cisa\\0,1\P,
 0,1.85641,0.51505,-0.15282\P,0,-1.17027,1.26636,1.60852\N,0,1.68583,-1
 .12602,-0.64279\N,0,-1.9988,0.04342,0.75537\C,0,-0.53092,-2.09623,-0.4
 0997\C,0,-1.07912,-1.00679,-1.24963\C,0,-1.3884,-3.09759,0.14333\C,0,-
 0.80959,-0.95322,-2.65078\C,0,0.82849,-2.12513,-0.13736\C,0,-1.80204,0
 .01082,-0.64701\C,0,-0.82912,-4.13458,0.95344\C,0,-1.25863,0.17201,-3.
 40991\C,0,1.37874,-3.18123,0.63731\C,0,-2.30158,1.092,-1.42149\C,0,0.5
 7285,-4.15813,1.16407\C,0,-2.02855,1.17194,-2.76557\C,0,-2.78877,-3.10
 82,-0.09599\C,0,-0.0608,-1.96094,-3.31199\C,0,-1.68334,-5.11836,1.5112
 7\C,0,-0.92172,0.26036,-4.78558\C,0,-3.59246,-4.07752,0.46187\C,0,0.25
 517,-1.84489,-4.64665\C,0,-3.03883,-5.0894,1.27765\C,0,-0.17187,-0.721
 19,-5.39163\C,0,3.10274,0.91168,-1.4292\C,0,2.80202,0.49001,1.41267\C,
 0,-2.47174,2.38514,2.2262\C,0,-0.52955,0.43299,3.09939\C,0,2.74685,0.7
 1374,-2.77211\C,0,3.72291,-0.52715,1.69099\C,0,-3.812,2.13763,1.90933\
 C,0,-0.68101,0.95896,4.38828\C,0,4.35724,1.44575,-1.11481\C,0,2.56498,
 1.48081,2.37108\C,0,-2.14276,3.53212,2.96353\C,0,0.20328,-0.74749,2.92
 713\C,0,3.64106,1.04868,-3.78599\C,0,4.38257,-0.56085,2.91663\C,0,-4.8
 0663,3.02322,2.32333\C,0,-0.08262,0.32524,5.47659\C,0,5.24674,1.782,-2
 .13599\C,0,3.22658,1.45015,3.59676\C,0,-3.13891,4.41177,3.38081\C,0,0.
 78961,-1.38393,4.0154\C,0,4.89009,1.58615,-3.46977\C,0,4.12908,0.42412
 ,3.87332\C,0,-4.47284,4.16066,3.0571\C,0,0.65836,-0.8413,5.29341\H,0,2
 .56537,-1.49589,-0.99802\H,0,-2.13216,-0.8539,1.21868\H,0,2.4551,-3.19
 324,0.82655\H,0,-2.93535,1.83541,-0.93386\H,0,1.00496,-4.96316,1.76581
 \H,0,-2.41579,2.00728,-3.35641\H,0,-3.22441,-2.34186,-0.74297\H,0,0.26
 522,-2.83504,-2.74311\H,0,-1.24362,-5.90574,2.13078\H,0,-1.27338,1.123
 77,-5.35879\H,0,-4.66813,-4.07041,0.26392\H,0,0.83448,-2.63137,-5.1387
 4\H,0,-3.68881,-5.85296,1.71365\H,0,0.08187,-0.64343,-6.45261\H,0,1.77
 234,0.28202,-3.02543\H,0,3.93227,-1.30054,0.94593\H,0,-4.06841,1.24017
 ,1.3394\H,0,-1.28223,1.85413,4.55862\H,0,4.64239,1.5984,-0.0697\H,0,1.
 83562,2.2685,2.14815\H,0,-1.10236,3.73869,3.23254\H,0,0.31771,-1.18229
 ,1.93285\H,0,3.35854,0.88667,-4.83017\H,0,5.09886,-1.35993,3.12853\H,0
 ,-5.85177,2.81886,2.07368\H,0,-0.20948,0.74354,6.47917\H,0,6.22835,2.1
 9417,-1.88528\H,0,3.02675,2.22241,4.34457\H,0,-2.87206,5.29964,3.96106
 \H,0,1.35579,-2.30556,3.85624\H,0,5.59076,1.84931,-4.26735\H,0,4.64088
 ,0.39092,4.83948\H,0,-5.25427,4.85393,3.38089\H,0,1.12511,-1.3344,6.15
 09\\Version=ES64L-G16RevC.01\HF=-2485.5845873\RMSD=4.997e-09\Dipole=0.
 5332319,-0.6691197,0.5020227\Quadrupole=0.7229998,-2.342715,1.6197152,
 -4.6573814,2.0531041,-1.3695014\PG=C01 [X(C44H34N2P2)]\\@
 The archive entry for this job was punched.


 MEN HAVE BECOME THE TOOLS OF THEIR TOOLS... THOREAU   
 Job cpu time:       0 days  2 hours 23 minutes 26.5 seconds.
 Elapsed time:       0 days  0 hours  7 minutes 28.5 seconds.
 File lengths (MBytes):  RWF=    560 Int=      0 D2E=      0 Chk=     48 Scr=     32
 Normal termination of Gaussian 16 at Sat Aug 12 03:16:27 2023.
