 Entering Gaussian System, Link 0=g16
 Input=free_ligand_L9_SP.inp
 Output=free_ligand_L9_SP.log
 Initial command:
 /sw/arch/Centos8/EB_production/2021/software/Gaussian/g16.c01/l1.exe "/scratch-local/adarsh.3296509/Gau-3999569.inp" -scrdir="/scratch-local/adarsh.3296509/"
 Entering Link 1 = /sw/arch/Centos8/EB_production/2021/software/Gaussian/g16.c01/l1.exe PID=   3999570.
  
 Copyright (c) 1988-2019, Gaussian, Inc.  All Rights Reserved.
  
 This is part of the Gaussian(R) 16 program.  It is based on
 the Gaussian(R) 09 system (copyright 2009, Gaussian, Inc.),
 the Gaussian(R) 03 system (copyright 2003, Gaussian, Inc.),
 the Gaussian(R) 98 system (copyright 1998, Gaussian, Inc.),
 the Gaussian(R) 94 system (copyright 1995, Gaussian, Inc.),
 the Gaussian 92(TM) system (copyright 1992, Gaussian, Inc.),
 the Gaussian 90(TM) system (copyright 1990, Gaussian, Inc.),
 the Gaussian 88(TM) system (copyright 1988, Gaussian, Inc.),
 the Gaussian 86(TM) system (copyright 1986, Carnegie Mellon
 University), and the Gaussian 82(TM) system (copyright 1983,
 Carnegie Mellon University). Gaussian is a federally registered
 trademark of Gaussian, Inc.
  
 This software contains proprietary and confidential information,
 including trade secrets, belonging to Gaussian, Inc.
  
 This software is provided under written license and may be
 used, copied, transmitted, or stored only in accord with that
 written license.
  
 The following legend is applicable only to US Government
 contracts under FAR:
  
                    RESTRICTED RIGHTS LEGEND
  
 Use, reproduction and disclosure by the US Government is
 subject to restrictions as set forth in subparagraphs (a)
 and (c) of the Commercial Computer Software - Restricted
 Rights clause in FAR 52.227-19.
  
 Gaussian, Inc.
 340 Quinnipiac St., Bldg. 40, Wallingford CT 06492
  
  
 ---------------------------------------------------------------
 Warning -- This program may not be used in any manner that
 competes with the business of Gaussian, Inc. or will provide
 assistance to any competitor of Gaussian, Inc.  The licensee
 of this program is prohibited from giving any competitor of
 Gaussian, Inc. access to this program.  By using this program,
 the user acknowledges that Gaussian, Inc. is engaged in the
 business of creating and licensing software in the field of
 computational chemistry and represents and warrants to the
 licensee that it is not a competitor of Gaussian, Inc. and that
 it will not use this program in any manner prohibited above.
 ---------------------------------------------------------------
  

 Cite this work as:
 Gaussian 16, Revision C.01,
 M. J. Frisch, G. W. Trucks, H. B. Schlegel, G. E. Scuseria, 
 M. A. Robb, J. R. Cheeseman, G. Scalmani, V. Barone, 
 G. A. Petersson, H. Nakatsuji, X. Li, M. Caricato, A. V. Marenich, 
 J. Bloino, B. G. Janesko, R. Gomperts, B. Mennucci, H. P. Hratchian, 
 J. V. Ortiz, A. F. Izmaylov, J. L. Sonnenberg, D. Williams-Young, 
 F. Ding, F. Lipparini, F. Egidi, J. Goings, B. Peng, A. Petrone, 
 T. Henderson, D. Ranasinghe, V. G. Zakrzewski, J. Gao, N. Rega, 
 G. Zheng, W. Liang, M. Hada, M. Ehara, K. Toyota, R. Fukuda, 
 J. Hasegawa, M. Ishida, T. Nakajima, Y. Honda, O. Kitao, H. Nakai, 
 T. Vreven, K. Throssell, J. A. Montgomery, Jr., J. E. Peralta, 
 F. Ogliaro, M. J. Bearpark, J. J. Heyd, E. N. Brothers, K. N. Kudin, 
 V. N. Staroverov, T. A. Keith, R. Kobayashi, J. Normand, 
 K. Raghavachari, A. P. Rendell, J. C. Burant, S. S. Iyengar, 
 J. Tomasi, M. Cossi, J. M. Millam, M. Klene, C. Adamo, R. Cammi, 
 J. W. Ochterski, R. L. Martin, K. Morokuma, O. Farkas, 
 J. B. Foresman, and D. J. Fox, Gaussian, Inc., Wallingford CT, 2019.
 
 ******************************************
 Gaussian 16:  ES64L-G16RevC.01  3-Jul-2019
                12-Aug-2023 
 ******************************************
 %nprocshared=32
 Will use up to   32 processors via shared memory.
 %mem=30GB
 %chk=free_ligand_L9.chk
 ----------------------------------------------------------------------
 #p pop=nbo NMR pbe1pbe/def2svpp empiricaldispersion=gd3bj integral=gri
 d=ultrafinegrid scf=(xqc,maxconventionalcycles=90) nosymm
 ----------------------------------------------------------------------
 1/38=1,172=1/1;
 2/12=2,15=1,17=6,18=5,40=1/2;
 3/5=43,7=202,11=2,25=1,30=1,74=-13,75=-5,124=41/1,2,3,8;
 4//1;
 5/5=2,8=3,13=1,38=5,85=90/2,8;
 8/6=1,10=90,11=11/1;
 10/13=100,31=1,45=16/2;
 6/7=2,8=2,9=2,10=2,28=1,40=1,64=1/1,7;
 99/9=1/99;
 Leave Link    1 at Sat Aug 12 04:32:08 2023, MaxMem=  4026531840 cpu:              41.6 elap:               1.4
 (Enter /sw/arch/Centos8/EB_production/2021/software/Gaussian/g16.c01/l101.exe)
 ----
 Cisa
 ----
 Symbolic Z-matrix:
 Charge =  0 Multiplicity = 1
 C                    -4.80397  -0.44409  -1.1805 
 C                    -5.30954   0.8108   -0.73824 
 C                    -4.57248   1.83852  -1.3928 
 C                    -3.60746   1.21889  -2.23821 
 C                    -3.75147  -0.19014  -2.10731 
 H                    -5.16151  -1.42317  -0.86182 
 H                    -6.10773   0.95948  -0.01081 
 H                    -4.71339   2.91085  -1.25347 
 H                    -2.88301   1.72991  -2.87317 
 H                    -3.15651  -0.9409   -2.62638 
 Fe                   -3.31871   0.66353  -0.28339 
 C                    -2.54803   1.98061   1.06131 
 C                    -1.50541   1.3859    0.28334 
 C                    -1.55474  -0.04229   0.5109 
 C                    -2.65872  -0.28319   1.40375 
 C                    -3.254     0.95587   1.74462 
 H                    -2.80536   3.03779   1.08715 
 H                    -2.99476  -1.25342   1.76168 
 H                    -4.12652   1.09389   2.38288 
 C                    -0.59527   2.15377  -0.63832 
 H                    -0.54754   1.5921   -1.58803 
 P                    -0.21551  -1.22348   0.13882 
 C                    -1.19679   3.52647  -0.944 
 H                    -0.72445   4.0036   -1.81124 
 H                    -2.26149   3.3933   -1.1904 
 H                    -1.13459   4.2212   -0.09464 
 P                     1.21142   2.04451  -0.09086 
 C                     0.10974  -1.92517   1.86016 
 C                    -0.80958  -3.0307    2.39142 
 C                     1.57003  -2.31747   2.10828 
 H                    -0.08956  -1.03192   2.47535 
 C                    -0.55749  -3.26148   3.8824 
 H                    -0.62448  -3.97041   1.84176 
 H                    -1.86947  -2.78145   2.24453 
 C                     1.83102  -2.53243   3.59652 
 H                     2.25092  -1.54834   1.69853 
 H                     1.79458  -3.25849   1.57306 
 C                     0.90108  -3.59449   4.17191 
 H                    -1.21707  -4.0687    4.24563 
 H                    -0.84487  -2.34837   4.43839 
 H                     2.88654  -2.81599   3.75297 
 H                     1.67919  -1.57528   4.13206 
 H                     1.14773  -4.57515   3.72136 
 H                     1.0623   -3.70155   5.25838 
 C                    -0.98187  -2.5498   -0.94915 
 C                    -0.15517  -3.83359  -1.10772 
 C                    -2.42091  -2.93231  -0.58722 
 H                    -1.00993  -2.03902  -1.93352 
 C                    -0.77015  -4.75751  -2.1605 
 H                    -0.11483  -4.36225  -0.13843 
 H                     0.88051  -3.62649  -1.39571 
 C                    -3.04112  -3.82689  -1.65784 
 H                    -3.02501  -2.02847  -0.44539 
 H                    -2.42481  -3.48277   0.36766 
 C                    -2.22342  -5.09667  -1.8567 
 H                    -0.16453  -5.67729  -2.23685 
 H                    -0.70859  -4.26138  -3.14887 
 H                    -4.07995  -4.07394  -1.37617 
 H                    -3.10082  -3.27449  -2.6157 
 H                    -2.27183  -5.70839  -0.93557 
 H                    -2.65123  -5.71391  -2.66529 
 C                     1.32716   2.54545   1.73655 
 C                     2.12942   3.34894  -1.14781 
 C                     0.90424   1.34465   2.58289 
 H                     1.01652   1.60158   3.6522 
 H                    -0.14837   1.07117   2.41617 
 H                     1.5438    0.47101   2.37695 
 C                     0.43617   3.7336    2.10527 
 H                    -0.63051   3.48559   1.99789 
 H                     0.6066    3.98393   3.16858 
 H                     0.65096   4.63752   1.51761 
 C                     2.78438   2.8604    2.08558 
 H                     3.13409   3.80426   1.64351 
 H                     2.8675    2.9634    3.1825 
 H                     3.46928   2.05136   1.77824 
 C                     1.75449   3.02552  -2.60642 
 H                     0.7419    3.3751   -2.85713 
 H                     2.45117   3.54237  -3.2902 
 H                     1.79097   1.94591  -2.82982 
 C                     3.6565    3.22738  -0.9358 
 H                     3.99001   2.25065  -0.5698 
 H                     4.18304   3.43123  -1.88476 
 H                     4.01424   3.97397  -0.21216 
 C                     1.79492   4.82172  -0.87143 
 H                     2.36972   5.43648  -1.58878 
 H                     0.73697   5.07962  -0.99704 
 H                     2.11037   5.13357   0.1359 
 
 ITRead=  0  0  0  0  0  0  0  0  0  0  0  0  0  0  0  0  0  0  0  0
 ITRead=  0  0  0  0  0  0  0  0  0  0  0  0  0  0  0  0  0  0  0  0
 ITRead=  0  0  0  0  0  0  0  0  0  0  0  0  0  0  0  0  0  0  0  0
 ITRead=  0  0  0  0  0  0  0  0  0  0  0  0  0  0  0  0  0  0  0  0
 ITRead=  0  0  0  0  0  0  0
 MicOpt= -1 -1 -1 -1 -1 -1 -1 -1 -1 -1 -1 -1 -1 -1 -1 -1 -1 -1 -1 -1
 MicOpt= -1 -1 -1 -1 -1 -1 -1 -1 -1 -1 -1 -1 -1 -1 -1 -1 -1 -1 -1 -1
 MicOpt= -1 -1 -1 -1 -1 -1 -1 -1 -1 -1 -1 -1 -1 -1 -1 -1 -1 -1 -1 -1
 MicOpt= -1 -1 -1 -1 -1 -1 -1 -1 -1 -1 -1 -1 -1 -1 -1 -1 -1 -1 -1 -1
 MicOpt= -1 -1 -1 -1 -1 -1 -1
 NAtoms=     87 NQM=       87 NQMF=       0 NMMI=      0 NMMIF=      0
                NMic=       0 NMicF=      0.
                    Isotopes and Nuclear Properties:
 (Nuclear quadrupole moments (NQMom) in fm**2, nuclear magnetic moments (NMagM)
  in nuclear magnetons)

  Atom         1           2           3           4           5           6           7           8           9          10
 IAtWgt=          12          12          12          12          12           1           1           1           1           1
 AtmWgt=  12.0000000  12.0000000  12.0000000  12.0000000  12.0000000   1.0078250   1.0078250   1.0078250   1.0078250   1.0078250
 NucSpn=           0           0           0           0           0           1           1           1           1           1
 AtZEff=  -0.0000000  -0.0000000  -0.0000000  -0.0000000  -0.0000000  -0.0000000  -0.0000000  -0.0000000  -0.0000000  -0.0000000
 NQMom=    0.0000000   0.0000000   0.0000000   0.0000000   0.0000000   0.0000000   0.0000000   0.0000000   0.0000000   0.0000000
 NMagM=    0.0000000   0.0000000   0.0000000   0.0000000   0.0000000   2.7928460   2.7928460   2.7928460   2.7928460   2.7928460
 AtZNuc=   6.0000000   6.0000000   6.0000000   6.0000000   6.0000000   1.0000000   1.0000000   1.0000000   1.0000000   1.0000000

  Atom        11          12          13          14          15          16          17          18          19          20
 IAtWgt=          56          12          12          12          12          12           1           1           1          12
 AtmWgt=  55.9349393  12.0000000  12.0000000  12.0000000  12.0000000  12.0000000   1.0078250   1.0078250   1.0078250  12.0000000
 NucSpn=           0           0           0           0           0           0           1           1           1           0
 AtZEff=  -0.0000000  -0.0000000  -0.0000000  -0.0000000  -0.0000000  -0.0000000  -0.0000000  -0.0000000  -0.0000000  -0.0000000
 NQMom=    0.0000000   0.0000000   0.0000000   0.0000000   0.0000000   0.0000000   0.0000000   0.0000000   0.0000000   0.0000000
 NMagM=    0.0000000   0.0000000   0.0000000   0.0000000   0.0000000   0.0000000   2.7928460   2.7928460   2.7928460   0.0000000
 AtZNuc=  26.0000000   6.0000000   6.0000000   6.0000000   6.0000000   6.0000000   1.0000000   1.0000000   1.0000000   6.0000000

  Atom        21          22          23          24          25          26          27          28          29          30
 IAtWgt=           1          31          12           1           1           1          31          12          12          12
 AtmWgt=   1.0078250  30.9737634  12.0000000   1.0078250   1.0078250   1.0078250  30.9737634  12.0000000  12.0000000  12.0000000
 NucSpn=           1           1           0           1           1           1           1           0           0           0
 AtZEff=  -0.0000000  -0.0000000  -0.0000000  -0.0000000  -0.0000000  -0.0000000  -0.0000000  -0.0000000  -0.0000000  -0.0000000
 NQMom=    0.0000000   0.0000000   0.0000000   0.0000000   0.0000000   0.0000000   0.0000000   0.0000000   0.0000000   0.0000000
 NMagM=    2.7928460   1.1316000   0.0000000   2.7928460   2.7928460   2.7928460   1.1316000   0.0000000   0.0000000   0.0000000
 AtZNuc=   1.0000000  15.0000000   6.0000000   1.0000000   1.0000000   1.0000000  15.0000000   6.0000000   6.0000000   6.0000000

  Atom        31          32          33          34          35          36          37          38          39          40
 IAtWgt=           1          12           1           1          12           1           1          12           1           1
 AtmWgt=   1.0078250  12.0000000   1.0078250   1.0078250  12.0000000   1.0078250   1.0078250  12.0000000   1.0078250   1.0078250
 NucSpn=           1           0           1           1           0           1           1           0           1           1
 AtZEff=  -0.0000000  -0.0000000  -0.0000000  -0.0000000  -0.0000000  -0.0000000  -0.0000000  -0.0000000  -0.0000000  -0.0000000
 NQMom=    0.0000000   0.0000000   0.0000000   0.0000000   0.0000000   0.0000000   0.0000000   0.0000000   0.0000000   0.0000000
 NMagM=    2.7928460   0.0000000   2.7928460   2.7928460   0.0000000   2.7928460   2.7928460   0.0000000   2.7928460   2.7928460
 AtZNuc=   1.0000000   6.0000000   1.0000000   1.0000000   6.0000000   1.0000000   1.0000000   6.0000000   1.0000000   1.0000000

  Atom        41          42          43          44          45          46          47          48          49          50
 IAtWgt=           1           1           1           1          12          12          12           1          12           1
 AtmWgt=   1.0078250   1.0078250   1.0078250   1.0078250  12.0000000  12.0000000  12.0000000   1.0078250  12.0000000   1.0078250
 NucSpn=           1           1           1           1           0           0           0           1           0           1
 AtZEff=  -0.0000000  -0.0000000  -0.0000000  -0.0000000  -0.0000000  -0.0000000  -0.0000000  -0.0000000  -0.0000000  -0.0000000
 NQMom=    0.0000000   0.0000000   0.0000000   0.0000000   0.0000000   0.0000000   0.0000000   0.0000000   0.0000000   0.0000000
 NMagM=    2.7928460   2.7928460   2.7928460   2.7928460   0.0000000   0.0000000   0.0000000   2.7928460   0.0000000   2.7928460
 AtZNuc=   1.0000000   1.0000000   1.0000000   1.0000000   6.0000000   6.0000000   6.0000000   1.0000000   6.0000000   1.0000000

  Atom        51          52          53          54          55          56          57          58          59          60
 IAtWgt=           1          12           1           1          12           1           1           1           1           1
 AtmWgt=   1.0078250  12.0000000   1.0078250   1.0078250  12.0000000   1.0078250   1.0078250   1.0078250   1.0078250   1.0078250
 NucSpn=           1           0           1           1           0           1           1           1           1           1
 AtZEff=  -0.0000000  -0.0000000  -0.0000000  -0.0000000  -0.0000000  -0.0000000  -0.0000000  -0.0000000  -0.0000000  -0.0000000
 NQMom=    0.0000000   0.0000000   0.0000000   0.0000000   0.0000000   0.0000000   0.0000000   0.0000000   0.0000000   0.0000000
 NMagM=    2.7928460   0.0000000   2.7928460   2.7928460   0.0000000   2.7928460   2.7928460   2.7928460   2.7928460   2.7928460
 AtZNuc=   1.0000000   6.0000000   1.0000000   1.0000000   6.0000000   1.0000000   1.0000000   1.0000000   1.0000000   1.0000000

  Atom        61          62          63          64          65          66          67          68          69          70
 IAtWgt=           1          12          12          12           1           1           1          12           1           1
 AtmWgt=   1.0078250  12.0000000  12.0000000  12.0000000   1.0078250   1.0078250   1.0078250  12.0000000   1.0078250   1.0078250
 NucSpn=           1           0           0           0           1           1           1           0           1           1
 AtZEff=  -0.0000000  -0.0000000  -0.0000000  -0.0000000  -0.0000000  -0.0000000  -0.0000000  -0.0000000  -0.0000000  -0.0000000
 NQMom=    0.0000000   0.0000000   0.0000000   0.0000000   0.0000000   0.0000000   0.0000000   0.0000000   0.0000000   0.0000000
 NMagM=    2.7928460   0.0000000   0.0000000   0.0000000   2.7928460   2.7928460   2.7928460   0.0000000   2.7928460   2.7928460
 AtZNuc=   1.0000000   6.0000000   6.0000000   6.0000000   1.0000000   1.0000000   1.0000000   6.0000000   1.0000000   1.0000000

  Atom        71          72          73          74          75          76          77          78          79          80
 IAtWgt=           1          12           1           1           1          12           1           1           1          12
 AtmWgt=   1.0078250  12.0000000   1.0078250   1.0078250   1.0078250  12.0000000   1.0078250   1.0078250   1.0078250  12.0000000
 NucSpn=           1           0           1           1           1           0           1           1           1           0
 AtZEff=  -0.0000000  -0.0000000  -0.0000000  -0.0000000  -0.0000000  -0.0000000  -0.0000000  -0.0000000  -0.0000000  -0.0000000
 NQMom=    0.0000000   0.0000000   0.0000000   0.0000000   0.0000000   0.0000000   0.0000000   0.0000000   0.0000000   0.0000000
 NMagM=    2.7928460   0.0000000   2.7928460   2.7928460   2.7928460   0.0000000   2.7928460   2.7928460   2.7928460   0.0000000
 AtZNuc=   1.0000000   6.0000000   1.0000000   1.0000000   1.0000000   6.0000000   1.0000000   1.0000000   1.0000000   6.0000000

  Atom        81          82          83          84          85          86          87
 IAtWgt=           1           1           1          12           1           1           1
 AtmWgt=   1.0078250   1.0078250   1.0078250  12.0000000   1.0078250   1.0078250   1.0078250
 NucSpn=           1           1           1           0           1           1           1
 AtZEff=  -0.0000000  -0.0000000  -0.0000000  -0.0000000  -0.0000000  -0.0000000  -0.0000000
 NQMom=    0.0000000   0.0000000   0.0000000   0.0000000   0.0000000   0.0000000   0.0000000
 NMagM=    2.7928460   2.7928460   2.7928460   0.0000000   2.7928460   2.7928460   2.7928460
 AtZNuc=   1.0000000   1.0000000   1.0000000   6.0000000   1.0000000   1.0000000   1.0000000
 Leave Link  101 at Sat Aug 12 04:32:09 2023, MaxMem=  4026531840 cpu:               5.4 elap:               0.2
 (Enter /sw/arch/Centos8/EB_production/2021/software/Gaussian/g16.c01/l202.exe)
 Symmetry turned off by external request.
 Stoichiometry    C32H52FeP2
 Framework group  C1[X(C32H52FeP2)]
 Deg. of freedom   255
 Full point group                 C1      NOp   1
                          Input orientation:                          
 ---------------------------------------------------------------------
 Center     Atomic      Atomic             Coordinates (Angstroms)
 Number     Number       Type             X           Y           Z
 ---------------------------------------------------------------------
      1          6           0       -4.803970   -0.444090   -1.180500
      2          6           0       -5.309540    0.810800   -0.738240
      3          6           0       -4.572480    1.838520   -1.392800
      4          6           0       -3.607460    1.218890   -2.238210
      5          6           0       -3.751470   -0.190140   -2.107310
      6          1           0       -5.161510   -1.423170   -0.861820
      7          1           0       -6.107730    0.959480   -0.010810
      8          1           0       -4.713390    2.910850   -1.253470
      9          1           0       -2.883010    1.729910   -2.873170
     10          1           0       -3.156510   -0.940900   -2.626380
     11         26           0       -3.318710    0.663530   -0.283390
     12          6           0       -2.548030    1.980610    1.061310
     13          6           0       -1.505410    1.385900    0.283340
     14          6           0       -1.554740   -0.042290    0.510900
     15          6           0       -2.658720   -0.283190    1.403750
     16          6           0       -3.254000    0.955870    1.744620
     17          1           0       -2.805360    3.037790    1.087150
     18          1           0       -2.994760   -1.253420    1.761680
     19          1           0       -4.126520    1.093890    2.382880
     20          6           0       -0.595270    2.153770   -0.638320
     21          1           0       -0.547540    1.592100   -1.588030
     22         15           0       -0.215510   -1.223480    0.138820
     23          6           0       -1.196790    3.526470   -0.944000
     24          1           0       -0.724450    4.003600   -1.811240
     25          1           0       -2.261490    3.393300   -1.190400
     26          1           0       -1.134590    4.221200   -0.094640
     27         15           0        1.211420    2.044510   -0.090860
     28          6           0        0.109740   -1.925170    1.860160
     29          6           0       -0.809580   -3.030700    2.391420
     30          6           0        1.570030   -2.317470    2.108280
     31          1           0       -0.089560   -1.031920    2.475350
     32          6           0       -0.557490   -3.261480    3.882400
     33          1           0       -0.624480   -3.970410    1.841760
     34          1           0       -1.869470   -2.781450    2.244530
     35          6           0        1.831020   -2.532430    3.596520
     36          1           0        2.250920   -1.548340    1.698530
     37          1           0        1.794580   -3.258490    1.573060
     38          6           0        0.901080   -3.594490    4.171910
     39          1           0       -1.217070   -4.068700    4.245630
     40          1           0       -0.844870   -2.348370    4.438390
     41          1           0        2.886540   -2.815990    3.752970
     42          1           0        1.679190   -1.575280    4.132060
     43          1           0        1.147730   -4.575150    3.721360
     44          1           0        1.062300   -3.701550    5.258380
     45          6           0       -0.981870   -2.549800   -0.949150
     46          6           0       -0.155170   -3.833590   -1.107720
     47          6           0       -2.420910   -2.932310   -0.587220
     48          1           0       -1.009930   -2.039020   -1.933520
     49          6           0       -0.770150   -4.757510   -2.160500
     50          1           0       -0.114830   -4.362250   -0.138430
     51          1           0        0.880510   -3.626490   -1.395710
     52          6           0       -3.041120   -3.826890   -1.657840
     53          1           0       -3.025010   -2.028470   -0.445390
     54          1           0       -2.424810   -3.482770    0.367660
     55          6           0       -2.223420   -5.096670   -1.856700
     56          1           0       -0.164530   -5.677290   -2.236850
     57          1           0       -0.708590   -4.261380   -3.148870
     58          1           0       -4.079950   -4.073940   -1.376170
     59          1           0       -3.100820   -3.274490   -2.615700
     60          1           0       -2.271830   -5.708390   -0.935570
     61          1           0       -2.651230   -5.713910   -2.665290
     62          6           0        1.327160    2.545450    1.736550
     63          6           0        2.129420    3.348940   -1.147810
     64          6           0        0.904240    1.344650    2.582890
     65          1           0        1.016520    1.601580    3.652200
     66          1           0       -0.148370    1.071170    2.416170
     67          1           0        1.543800    0.471010    2.376950
     68          6           0        0.436170    3.733600    2.105270
     69          1           0       -0.630510    3.485590    1.997890
     70          1           0        0.606600    3.983930    3.168580
     71          1           0        0.650960    4.637520    1.517610
     72          6           0        2.784380    2.860400    2.085580
     73          1           0        3.134090    3.804260    1.643510
     74          1           0        2.867500    2.963400    3.182500
     75          1           0        3.469280    2.051360    1.778240
     76          6           0        1.754490    3.025520   -2.606420
     77          1           0        0.741900    3.375100   -2.857130
     78          1           0        2.451170    3.542370   -3.290200
     79          1           0        1.790970    1.945910   -2.829820
     80          6           0        3.656500    3.227380   -0.935800
     81          1           0        3.990010    2.250650   -0.569800
     82          1           0        4.183040    3.431230   -1.884760
     83          1           0        4.014240    3.973970   -0.212160
     84          6           0        1.794920    4.821720   -0.871430
     85          1           0        2.369720    5.436480   -1.588780
     86          1           0        0.736970    5.079620   -0.997040
     87          1           0        2.110370    5.133570    0.135900
 ---------------------------------------------------------------------
 Rotational constants (GHZ):           0.1186032           0.0921232           0.0698403
 Leave Link  202 at Sat Aug 12 04:32:09 2023, MaxMem=  4026531840 cpu:               0.1 elap:               0.0
 (Enter /sw/arch/Centos8/EB_production/2021/software/Gaussian/g16.c01/l301.exe)
 Standard basis: def2SVPP (5D, 7F)
 Ernie: Thresh=  0.10000D-02 Tol=  0.10000D-05 Strict=F.
   612 basis functions,  1153 primitive gaussians,   648 cartesian basis functions
   150 alpha electrons      150 beta electrons
       nuclear repulsion energy      5445.3264800589 Hartrees.
 IExCor= 1009 DFT=T Ex+Corr=PBE1PBE ExCW=0 ScaHFX=  0.250000
 ScaDFX=  0.750000  0.750000  1.000000  1.000000 ScalE2=  1.000000  1.000000
 IRadAn=      5 IRanWt=     -1 IRanGd=            0 ICorTp=0 IEmpDi=141
 NAtoms=   87 NActive=   87 NUniq=   87 SFac= 1.00D+00 NAtFMM=   60 NAOKFM=T Big=T
 Integral buffers will be    131072 words long.
 Raffenetti 2 integral format.
 Two-electron integral symmetry is turned off.
 R6Disp:  Grimme-D3(BJ) Dispersion energy=       -0.1269270842 Hartrees.
 Nuclear repulsion after empirical dispersion term =     5445.1995529747 Hartrees.
 Leave Link  301 at Sat Aug 12 04:32:09 2023, MaxMem=  4026531840 cpu:               0.9 elap:               0.0
 (Enter /sw/arch/Centos8/EB_production/2021/software/Gaussian/g16.c01/l302.exe)
 NPDir=0 NMtPBC=     1 NCelOv=     1 NCel=       1 NClECP=     1 NCelD=      1
         NCelK=      1 NCelE2=     1 NClLst=     1 CellRange=     0.0.
 One-electron integrals computed using PRISM.
   1 Symmetry operations used in ECPInt.
 ECPInt:  NShTT=   52003 NPrTT=  216154 LenC2=   46864 LenP2D=  124305.
 LDataN:  DoStor=T MaxTD1= 4 Len=   56
 NBasis=   612 RedAO= T EigKep=  4.29D-04  NBF=   612
 NBsUse=   612 1.00D-06 EigRej= -1.00D+00 NBFU=   612
 Precomputing XC quadrature grid using
 IXCGrd= 4 IRadAn=           5 IRanWt=          -1 IRanGd=           0 AccXCQ= 0.00D+00.
 Generated NRdTot=       0 NPtTot=           0 NUsed=           0 NTot=          32
 NSgBfM=   637   637   637   637   637 MxSgAt=    87 MxSgA2=    87.
 Leave Link  302 at Sat Aug 12 04:32:10 2023, MaxMem=  4026531840 cpu:              32.6 elap:               1.0
 (Enter /sw/arch/Centos8/EB_production/2021/software/Gaussian/g16.c01/l303.exe)
 DipDrv:  MaxL=1.
 Leave Link  303 at Sat Aug 12 04:32:10 2023, MaxMem=  4026531840 cpu:               3.8 elap:               0.1
 (Enter /sw/arch/Centos8/EB_production/2021/software/Gaussian/g16.c01/l308.exe)
 Leave Link  308 at Sat Aug 12 04:32:10 2023, MaxMem=  4026531840 cpu:               7.0 elap:               0.3
 (Enter /sw/arch/Centos8/EB_production/2021/software/Gaussian/g16.c01/l401.exe)
 ExpMin= 3.37D-02 ExpMax= 6.09D+04 ExpMxC= 9.15D+03 IAcc=3 IRadAn=         5 AccDes= 0.00D+00
 Harris functional with IExCor= 1009 and IRadAn=       5 diagonalized for initial guess.
 HarFok:  IExCor= 1009 AccDes= 0.00D+00 IRadAn=         5 IDoV= 1 UseB2=F ITyADJ=14
 ICtDFT=  3500011 ScaDFX=  1.000000  1.000000  1.000000  1.000000
 FoFCou: FMM=F IPFlag=           0 FMFlag=      100000 FMFlg1=        2001
         NFxFlg=           0 DoJE=T BraDBF=F KetDBF=T FulRan=T
         wScrn=  0.000000 ICntrl=       500 IOpCl=  0 I1Cent=   200000004 NGrid=           0
         NMat0=    1 NMatS0=      1 NMatT0=    0 NMatD0=    1 NMtDS0=    0 NMtDT0=    0
 Symmetry not used in FoFCou.
 Harris En= -3194.31097304261    
 JPrj=0 DoOrth=F DoCkMO=F.
 Leave Link  401 at Sat Aug 12 04:32:14 2023, MaxMem=  4026531840 cpu:             101.3 elap:               3.4
 (Enter /sw/arch/Centos8/EB_production/2021/software/Gaussian/g16.c01/l502.exe)
 Two-electron integral symmetry not used.
 Closed shell SCF:
 Using DIIS extrapolation, IDIIS=  1040.
 NGot=  4026531840 LenX=  4025662148 LenY=  4025241596
 Requested convergence on RMS density matrix=1.00D-08 within  90 cycles.
 Requested convergence on MAX density matrix=1.00D-06.
 Requested convergence on             energy=1.00D-06.
 No special actions if energy rises.
 Fock matrices will be formed incrementally for  20 cycles.

 Cycle   1  Pass 1  IDiag  1:
 FoFJK:  IHMeth= 1 ICntrl=       0 DoSepK=F KAlg= 0 I1Cent=           0 FoldK=F
 IRaf= 990000000 NMat=       1 IRICut=       1 DoRegI=T DoRafI=F ISym2E= 0 IDoP0=0 IntGTp=1.
 FoFCou: FMM=T IPFlag=           0 FMFlag=      100000 FMFlg1=        2001
         NFxFlg=           0 DoJE=F BraDBF=F KetDBF=F FulRan=T
         wScrn=  0.000000 ICntrl=         0 IOpCl=  0 I1Cent=           0 NGrid=           0
         NMat0=    1 NMatS0=      1 NMatT0=    0 NMatD0=    1 NMtDS0=    0 NMtDT0=    0
 Symmetry not used in FoFCou.
 FMM levels:  10  Number of levels for PrismC:   9
 E= -3192.86621268081    
 DIIS: error= 2.19D-02 at cycle   1 NSaved=   1.
 NSaved= 1 IEnMin= 1 EnMin= -3192.86621268081     IErMin= 1 ErrMin= 2.19D-02
 ErrMax= 2.19D-02  0.00D+00 EMaxC= 1.00D-01 BMatC= 9.91D-01 BMatP= 9.91D-01
 IDIUse=3 WtCom= 7.81D-01 WtEn= 2.19D-01
 Coeff-Com:  0.100D+01
 Coeff-En:   0.100D+01
 Coeff:      0.100D+01
 Gap=     0.166 Goal=   None    Shift=    0.000
 GapD=    0.166 DampG=1.000 DampE=0.250 DampFc=0.2500 IDamp=-1.
 Damping current iteration by 2.50D-01
 RMSDP=4.62D-03 MaxDP=1.67D-01              OVMax= 1.86D-01

 Cycle   2  Pass 1  IDiag  1:
 RMSU=  1.11D-03    CP:  9.81D-01
 E= -3193.22960089274     Delta-E=       -0.363388211927 Rises=F Damp=T
 DIIS: error= 1.04D-02 at cycle   2 NSaved=   2.
 NSaved= 2 IEnMin= 2 EnMin= -3193.22960089274     IErMin= 2 ErrMin= 1.04D-02
 ErrMax= 1.04D-02  0.00D+00 EMaxC= 1.00D-01 BMatC= 2.37D-01 BMatP= 9.91D-01
 IDIUse=3 WtCom= 8.96D-01 WtEn= 1.04D-01
 Coeff-Com: -0.478D+00 0.148D+01
 Coeff-En:   0.000D+00 0.100D+01
 Coeff:     -0.428D+00 0.143D+01
 Gap=     0.292 Goal=   None    Shift=    0.000
 RMSDP=4.61D-03 MaxDP=3.89D-01 DE=-3.63D-01 OVMax= 5.14D-01

 Cycle   3  Pass 1  IDiag  1:
 RMSU=  4.59D-03    CP:  9.79D-01  1.35D+00
 E= -3191.65102403822     Delta-E=        1.578576854517 Rises=F Damp=F
 DIIS: error= 1.30D-01 at cycle   3 NSaved=   3.
 NSaved= 3 IEnMin= 2 EnMin= -3193.22960089274     IErMin= 2 ErrMin= 1.04D-02
 ErrMax= 1.30D-01  0.00D+00 EMaxC= 1.00D-01 BMatC= 3.48D+00 BMatP= 2.37D-01
 IDIUse=2 WtCom= 0.00D+00 WtEn= 1.00D+00
 Coeff-En:   0.000D+00 0.820D+00 0.180D+00
 Coeff:      0.000D+00 0.820D+00 0.180D+00
 Gap=     0.362 Goal=   None    Shift=    0.000
 RMSDP=5.73D-03 MaxDP=4.23D-01 DE= 1.58D+00 OVMax= 3.04D-01

 Cycle   4  Pass 1  IDiag  1:
 RMSU=  1.37D-03    CP:  9.33D-01  2.72D+00 -1.54D-01
 E= -3192.53917171668     Delta-E=       -0.888147678466 Rises=F Damp=F
 DIIS: error= 7.82D-02 at cycle   4 NSaved=   4.
 NSaved= 4 IEnMin= 2 EnMin= -3193.22960089274     IErMin= 2 ErrMin= 1.04D-02
 ErrMax= 7.82D-02  0.00D+00 EMaxC= 1.00D-01 BMatC= 2.29D+00 BMatP= 2.37D-01
 IDIUse=2 WtCom= 0.00D+00 WtEn= 1.00D+00
 EnCoef did     2 forward-backward iterations
 Coeff-En:   0.991D-01 0.000D+00 0.376D+00 0.525D+00
 Coeff:      0.991D-01 0.000D+00 0.376D+00 0.525D+00
 Gap=     0.133 Goal=   None    Shift=    0.000
 RMSDP=2.51D-03 MaxDP=2.06D-01 DE=-8.88D-01 OVMax= 2.44D-01

 Cycle   5  Pass 1  IDiag  1:
 RMSU=  9.74D-04    CP:  9.70D-01  1.35D+00  1.61D-01  4.45D-01
 E= -3193.85977173124     Delta-E=       -1.320600014555 Rises=F Damp=F
 DIIS: error= 9.49D-03 at cycle   5 NSaved=   5.
 NSaved= 5 IEnMin= 5 EnMin= -3193.85977173124     IErMin= 5 ErrMin= 9.49D-03
 ErrMax= 9.49D-03  0.00D+00 EMaxC= 1.00D-01 BMatC= 6.66D-02 BMatP= 2.37D-01
 IDIUse=3 WtCom= 9.05D-01 WtEn= 9.49D-02
 Coeff-Com: -0.537D+00 0.731D+00 0.168D-01-0.480D-01 0.837D+00
 Coeff-En:   0.000D+00 0.000D+00 0.000D+00 0.399D-01 0.960D+00
 Coeff:     -0.486D+00 0.662D+00 0.152D-01-0.397D-01 0.848D+00
 Gap=     0.178 Goal=   None    Shift=    0.000
 RMSDP=6.20D-04 MaxDP=3.18D-02 DE=-1.32D+00 OVMax= 3.57D-02

 Cycle   6  Pass 1  IDiag  1:
 RMSU=  2.64D-04    CP:  9.62D-01  1.81D+00  1.44D-01  3.31D-01  9.37D-01
 E= -3193.91879860189     Delta-E=       -0.059026870646 Rises=F Damp=F
 DIIS: error= 2.00D-03 at cycle   6 NSaved=   6.
 NSaved= 6 IEnMin= 6 EnMin= -3193.91879860189     IErMin= 6 ErrMin= 2.00D-03
 ErrMax= 2.00D-03  0.00D+00 EMaxC= 1.00D-01 BMatC= 2.18D-03 BMatP= 6.66D-02
 IDIUse=3 WtCom= 9.80D-01 WtEn= 2.00D-02
 Coeff-Com: -0.246D+00 0.332D+00 0.481D-02-0.328D-01 0.415D+00 0.528D+00
 Coeff-En:   0.000D+00 0.000D+00 0.000D+00 0.000D+00 0.000D+00 0.100D+01
 Coeff:     -0.241D+00 0.325D+00 0.472D-02-0.321D-01 0.406D+00 0.537D+00
 Gap=     0.173 Goal=   None    Shift=    0.000
 RMSDP=1.29D-04 MaxDP=7.04D-03 DE=-5.90D-02 OVMax= 6.65D-03

 Cycle   7  Pass 1  IDiag  1:
 RMSU=  7.30D-05    CP:  9.63D-01  1.77D+00  1.40D-01  3.39D-01  9.70D-01
                    CP:  6.89D-01
 E= -3193.92052895715     Delta-E=       -0.001730355269 Rises=F Damp=F
 DIIS: error= 2.24D-04 at cycle   7 NSaved=   7.
 NSaved= 7 IEnMin= 7 EnMin= -3193.92052895715     IErMin= 7 ErrMin= 2.24D-04
 ErrMax= 2.24D-04  0.00D+00 EMaxC= 1.00D-01 BMatC= 8.24D-05 BMatP= 2.18D-03
 IDIUse=3 WtCom= 9.98D-01 WtEn= 2.24D-03
 Coeff-Com: -0.311D-01 0.378D-01-0.887D-03-0.799D-02 0.608D-01 0.223D+00
 Coeff-Com:  0.719D+00
 Coeff-En:   0.000D+00 0.000D+00 0.000D+00 0.000D+00 0.000D+00 0.000D+00
 Coeff-En:   0.100D+01
 Coeff:     -0.310D-01 0.377D-01-0.885D-03-0.797D-02 0.607D-01 0.222D+00
 Coeff:      0.719D+00
 Gap=     0.175 Goal=   None    Shift=    0.000
 RMSDP=4.66D-05 MaxDP=3.75D-03 DE=-1.73D-03 OVMax= 3.27D-03

 Cycle   8  Pass 1  IDiag  1:
 RMSU=  3.54D-05    CP:  9.62D-01  1.77D+00  1.36D-01  3.44D-01  9.69D-01
                    CP:  7.57D-01  8.69D-01
 E= -3193.92062714965     Delta-E=       -0.000098192493 Rises=F Damp=F
 DIIS: error= 9.77D-05 at cycle   8 NSaved=   8.
 NSaved= 8 IEnMin= 8 EnMin= -3193.92062714965     IErMin= 8 ErrMin= 9.77D-05
 ErrMax= 9.77D-05  0.00D+00 EMaxC= 1.00D-01 BMatC= 2.16D-05 BMatP= 8.24D-05
 IDIUse=1 WtCom= 1.00D+00 WtEn= 0.00D+00
 Coeff-Com:  0.885D-02-0.145D-01-0.111D-02-0.147D-02-0.113D-01 0.635D-01
 Coeff-Com:  0.402D+00 0.554D+00
 Coeff:      0.885D-02-0.145D-01-0.111D-02-0.147D-02-0.113D-01 0.635D-01
 Coeff:      0.402D+00 0.554D+00
 Gap=     0.175 Goal=   None    Shift=    0.000
 RMSDP=2.06D-05 MaxDP=1.45D-03 DE=-9.82D-05 OVMax= 1.51D-03

 Cycle   9  Pass 1  IDiag  1:
 RMSU=  1.54D-05    CP:  9.62D-01  1.77D+00  1.35D-01  3.47D-01  9.70D-01
                    CP:  7.60D-01  9.70D-01  7.53D-01
 E= -3193.92065147020     Delta-E=       -0.000024320554 Rises=F Damp=F
 DIIS: error= 4.75D-05 at cycle   9 NSaved=   9.
 NSaved= 9 IEnMin= 9 EnMin= -3193.92065147020     IErMin= 9 ErrMin= 4.75D-05
 ErrMax= 4.75D-05  0.00D+00 EMaxC= 1.00D-01 BMatC= 3.07D-06 BMatP= 2.16D-05
 IDIUse=1 WtCom= 1.00D+00 WtEn= 0.00D+00
 Coeff-Com:  0.897D-02-0.123D-01-0.534D-03 0.448D-03-0.163D-01-0.105D-01
 Coeff-Com:  0.586D-01 0.294D+00 0.677D+00
 Coeff:      0.897D-02-0.123D-01-0.534D-03 0.448D-03-0.163D-01-0.105D-01
 Coeff:      0.586D-01 0.294D+00 0.677D+00
 Gap=     0.175 Goal=   None    Shift=    0.000
 RMSDP=9.59D-06 MaxDP=8.99D-04 DE=-2.43D-05 OVMax= 6.97D-04

 Cycle  10  Pass 1  IDiag  1:
 RMSU=  6.19D-06    CP:  9.62D-01  1.78D+00  1.34D-01  3.48D-01  9.69D-01
                    CP:  7.62D-01  9.78D-01  9.02D-01  8.89D-01
 E= -3193.92065483499     Delta-E=       -0.000003364792 Rises=F Damp=F
 DIIS: error= 5.27D-05 at cycle  10 NSaved=  10.
 NSaved=10 IEnMin=10 EnMin= -3193.92065483499     IErMin= 9 ErrMin= 4.75D-05
 ErrMax= 5.27D-05  0.00D+00 EMaxC= 1.00D-01 BMatC= 1.06D-06 BMatP= 3.07D-06
 IDIUse=1 WtCom= 1.00D+00 WtEn= 0.00D+00
 Coeff-Com:  0.280D-02-0.338D-02-0.265D-03 0.433D-03-0.625D-02-0.127D-01
 Coeff-Com: -0.243D-01 0.827D-01 0.369D+00 0.592D+00
 Coeff:      0.280D-02-0.338D-02-0.265D-03 0.433D-03-0.625D-02-0.127D-01
 Coeff:     -0.243D-01 0.827D-01 0.369D+00 0.592D+00
 Gap=     0.175 Goal=   None    Shift=    0.000
 RMSDP=3.11D-06 MaxDP=1.70D-04 DE=-3.36D-06 OVMax= 2.03D-04

 Cycle  11  Pass 1  IDiag  1:
 RMSU=  1.33D-06    CP:  9.62D-01  1.78D+00  1.34D-01  3.48D-01  9.69D-01
                    CP:  7.64D-01  9.85D-01  9.08D-01  9.84D-01  7.25D-01
 E= -3193.92065563934     Delta-E=       -0.000000804343 Rises=F Damp=F
 DIIS: error= 2.91D-05 at cycle  11 NSaved=  11.
 NSaved=11 IEnMin=11 EnMin= -3193.92065563934     IErMin=11 ErrMin= 2.91D-05
 ErrMax= 2.91D-05  0.00D+00 EMaxC= 1.00D-01 BMatC= 2.51D-07 BMatP= 1.06D-06
 IDIUse=1 WtCom= 1.00D+00 WtEn= 0.00D+00
 Coeff-Com:  0.264D-03-0.171D-03-0.145D-03 0.251D-03-0.833D-03-0.385D-02
 Coeff-Com: -0.171D-01 0.889D-02 0.100D+00 0.239D+00 0.674D+00
 Coeff:      0.264D-03-0.171D-03-0.145D-03 0.251D-03-0.833D-03-0.385D-02
 Coeff:     -0.171D-01 0.889D-02 0.100D+00 0.239D+00 0.674D+00
 Gap=     0.175 Goal=   None    Shift=    0.000
 RMSDP=1.06D-06 MaxDP=7.08D-05 DE=-8.04D-07 OVMax= 1.16D-04

 Cycle  12  Pass 1  IDiag  1:
 RMSU=  6.23D-07    CP:  9.62D-01  1.78D+00  1.34D-01  3.48D-01  9.69D-01
                    CP:  7.65D-01  9.86D-01  9.18D-01  9.88D-01  7.71D-01
                    CP:  1.00D+00
 E= -3193.92065578906     Delta-E=       -0.000000149725 Rises=F Damp=F
 DIIS: error= 1.42D-05 at cycle  12 NSaved=  12.
 NSaved=12 IEnMin=12 EnMin= -3193.92065578906     IErMin=12 ErrMin= 1.42D-05
 ErrMax= 1.42D-05  0.00D+00 EMaxC= 1.00D-01 BMatC= 5.46D-08 BMatP= 2.51D-07
 IDIUse=1 WtCom= 1.00D+00 WtEn= 0.00D+00
 Coeff-Com: -0.501D-03 0.672D-03-0.506D-04 0.806D-04 0.107D-02 0.132D-02
 Coeff-Com: -0.225D-02-0.124D-01-0.302D-01-0.202D-01 0.290D+00 0.772D+00
 Coeff:     -0.501D-03 0.672D-03-0.506D-04 0.806D-04 0.107D-02 0.132D-02
 Coeff:     -0.225D-02-0.124D-01-0.302D-01-0.202D-01 0.290D+00 0.772D+00
 Gap=     0.175 Goal=   None    Shift=    0.000
 RMSDP=8.03D-07 MaxDP=5.38D-05 DE=-1.50D-07 OVMax= 9.51D-05

 Cycle  13  Pass 1  IDiag  1:
 RMSU=  3.82D-07    CP:  9.62D-01  1.78D+00  1.33D-01  3.48D-01  9.68D-01
                    CP:  7.65D-01  9.85D-01  9.21D-01  1.00D+00  7.92D-01
                    CP:  1.25D+00  1.03D+00
 E= -3193.92065583173     Delta-E=       -0.000000042672 Rises=F Damp=F
 DIIS: error= 3.38D-06 at cycle  13 NSaved=  13.
 NSaved=13 IEnMin=13 EnMin= -3193.92065583173     IErMin=13 ErrMin= 3.38D-06
 ErrMax= 3.38D-06  0.00D+00 EMaxC= 1.00D-01 BMatC= 5.05D-09 BMatP= 5.46D-08
 IDIUse=1 WtCom= 1.00D+00 WtEn= 0.00D+00
 Coeff-Com: -0.277D-03 0.338D-03-0.131D-05-0.177D-05 0.647D-03 0.152D-02
 Coeff-Com:  0.295D-02-0.752D-02-0.365D-01-0.670D-01-0.224D-01 0.401D+00
 Coeff-Com:  0.727D+00
 Coeff:     -0.277D-03 0.338D-03-0.131D-05-0.177D-05 0.647D-03 0.152D-02
 Coeff:      0.295D-02-0.752D-02-0.365D-01-0.670D-01-0.224D-01 0.401D+00
 Coeff:      0.727D+00
 Gap=     0.175 Goal=   None    Shift=    0.000
 RMSDP=3.76D-07 MaxDP=2.71D-05 DE=-4.27D-08 OVMax= 6.32D-05

 Cycle  14  Pass 1  IDiag  1:
 RMSU=  1.69D-07    CP:  9.62D-01  1.78D+00  1.33D-01  3.48D-01  9.68D-01
                    CP:  7.65D-01  9.86D-01  9.22D-01  1.00D+00  8.05D-01
                    CP:  1.35D+00  1.41D+00  9.90D-01
 E= -3193.92065584030     Delta-E=       -0.000000008573 Rises=F Damp=F
 DIIS: error= 1.23D-06 at cycle  14 NSaved=  14.
 NSaved=14 IEnMin=14 EnMin= -3193.92065584030     IErMin=14 ErrMin= 1.23D-06
 ErrMax= 1.23D-06  0.00D+00 EMaxC= 1.00D-01 BMatC= 5.01D-10 BMatP= 5.05D-09
 IDIUse=1 WtCom= 1.00D+00 WtEn= 0.00D+00
 Coeff-Com: -0.145D-04 0.570D-05 0.108D-04-0.183D-04 0.490D-04 0.397D-03
 Coeff-Com:  0.171D-02-0.790D-03-0.101D-01-0.262D-01-0.668D-01 0.240D-01
 Coeff-Com:  0.345D+00 0.732D+00
 Coeff:     -0.145D-04 0.570D-05 0.108D-04-0.183D-04 0.490D-04 0.397D-03
 Coeff:      0.171D-02-0.790D-03-0.101D-01-0.262D-01-0.668D-01 0.240D-01
 Coeff:      0.345D+00 0.732D+00
 Gap=     0.175 Goal=   None    Shift=    0.000
 RMSDP=1.80D-07 MaxDP=1.58D-05 DE=-8.57D-09 OVMax= 3.72D-05

 Cycle  15  Pass 1  IDiag  1:
 RMSU=  6.98D-08    CP:  9.62D-01  1.78D+00  1.33D-01  3.48D-01  9.68D-01
                    CP:  7.65D-01  9.86D-01  9.22D-01  1.01D+00  8.06D-01
                    CP:  1.43D+00  1.54D+00  1.26D+00  1.08D+00
 E= -3193.92065584234     Delta-E=       -0.000000002035 Rises=F Damp=F
 DIIS: error= 1.11D-06 at cycle  15 NSaved=  15.
 NSaved=15 IEnMin=15 EnMin= -3193.92065584234     IErMin=15 ErrMin= 1.11D-06
 ErrMax= 1.11D-06  0.00D+00 EMaxC= 1.00D-01 BMatC= 4.04D-10 BMatP= 5.01D-10
 IDIUse=1 WtCom= 1.00D+00 WtEn= 0.00D+00
 Coeff-Com:  0.558D-04-0.734D-04 0.784D-05-0.115D-04-0.127D-03-0.235D-03
 Coeff-Com: -0.226D-03 0.139D-02 0.529D-02 0.843D-02-0.978D-02-0.916D-01
 Coeff-Com: -0.905D-01 0.213D+00 0.965D+00
 Coeff:      0.558D-04-0.734D-04 0.784D-05-0.115D-04-0.127D-03-0.235D-03
 Coeff:     -0.226D-03 0.139D-02 0.529D-02 0.843D-02-0.978D-02-0.916D-01
 Coeff:     -0.905D-01 0.213D+00 0.965D+00
 Gap=     0.175 Goal=   None    Shift=    0.000
 RMSDP=1.33D-07 MaxDP=1.23D-05 DE=-2.04D-09 OVMax= 2.91D-05

 Cycle  16  Pass 1  IDiag  1:
 RMSU=  3.54D-08    CP:  9.62D-01  1.78D+00  1.33D-01  3.48D-01  9.68D-01
                    CP:  7.65D-01  9.86D-01  9.22D-01  1.01D+00  8.08D-01
                    CP:  1.47D+00  1.66D+00  1.42D+00  1.37D+00  1.15D+00
 E= -3193.92065584336     Delta-E=       -0.000000001022 Rises=F Damp=F
 DIIS: error= 5.12D-07 at cycle  16 NSaved=  16.
 NSaved=16 IEnMin=16 EnMin= -3193.92065584336     IErMin=16 ErrMin= 5.12D-07
 ErrMax= 5.12D-07  0.00D+00 EMaxC= 1.00D-01 BMatC= 1.03D-10 BMatP= 4.04D-10
 IDIUse=1 WtCom= 1.00D+00 WtEn= 0.00D+00
 Coeff-Com:  0.232D-04-0.276D-04 0.248D-05-0.310D-05-0.574D-04-0.205D-03
 Coeff-Com: -0.532D-03 0.651D-03 0.457D-02 0.108D-01 0.160D-01-0.465D-01
 Coeff-Com: -0.153D+00-0.153D+00 0.435D+00 0.886D+00
 Coeff:      0.232D-04-0.276D-04 0.248D-05-0.310D-05-0.574D-04-0.205D-03
 Coeff:     -0.532D-03 0.651D-03 0.457D-02 0.108D-01 0.160D-01-0.465D-01
 Coeff:     -0.153D+00-0.153D+00 0.435D+00 0.886D+00
 Gap=     0.175 Goal=   None    Shift=    0.000
 RMSDP=8.56D-08 MaxDP=7.80D-06 DE=-1.02D-09 OVMax= 1.86D-05

 Cycle  17  Pass 1  IDiag  1:
 RMSU=  1.68D-08    CP:  9.62D-01  1.78D+00  1.33D-01  3.48D-01  9.68D-01
                    CP:  7.65D-01  9.86D-01  9.22D-01  1.01D+00  8.10D-01
                    CP:  1.50D+00  1.74D+00  1.52D+00  1.52D+00  1.48D+00
                    CP:  8.87D-01
 E= -3193.92065584359     Delta-E=       -0.000000000231 Rises=F Damp=F
 DIIS: error= 8.03D-08 at cycle  17 NSaved=  17.
 NSaved=17 IEnMin=17 EnMin= -3193.92065584359     IErMin=17 ErrMin= 8.03D-08
 ErrMax= 8.03D-08  0.00D+00 EMaxC= 1.00D-01 BMatC= 9.50D-12 BMatP= 1.03D-10
 IDIUse=1 WtCom= 1.00D+00 WtEn= 0.00D+00
 Coeff-Com:  0.105D-05-0.327D-06 0.398D-06-0.362D-06-0.359D-05-0.569D-04
 Coeff-Com: -0.186D-03 0.212D-04 0.102D-02 0.344D-02 0.851D-02-0.790D-02
 Coeff-Com: -0.597D-01-0.114D+00 0.484D-01 0.473D+00 0.647D+00
 Coeff:      0.105D-05-0.327D-06 0.398D-06-0.362D-06-0.359D-05-0.569D-04
 Coeff:     -0.186D-03 0.212D-04 0.102D-02 0.344D-02 0.851D-02-0.790D-02
 Coeff:     -0.597D-01-0.114D+00 0.484D-01 0.473D+00 0.647D+00
 Gap=     0.175 Goal=   None    Shift=    0.000
 RMSDP=2.38D-08 MaxDP=2.14D-06 DE=-2.31D-10 OVMax= 4.97D-06

 Cycle  18  Pass 1  IDiag  1:
 RMSU=  7.10D-09    CP:  9.62D-01  1.78D+00  1.33D-01  3.48D-01  9.68D-01
                    CP:  7.65D-01  9.86D-01  9.22D-01  1.01D+00  8.10D-01
                    CP:  1.51D+00  1.76D+00  1.55D+00  1.58D+00  1.53D+00
                    CP:  1.05D+00  8.03D-01
 E= -3193.92065584359     Delta-E=        0.000000000007 Rises=F Damp=F
 DIIS: error= 1.80D-08 at cycle  18 NSaved=  18.
 NSaved=18 IEnMin=17 EnMin= -3193.92065584359     IErMin=18 ErrMin= 1.80D-08
 ErrMax= 1.80D-08  0.00D+00 EMaxC= 1.00D-01 BMatC= 8.25D-13 BMatP= 9.50D-12
 IDIUse=1 WtCom= 1.00D+00 WtEn= 0.00D+00
 Coeff-Com: -0.145D-05 0.210D-05 0.660D-08 0.377D-07 0.349D-05-0.820D-05
 Coeff-Com: -0.336D-04-0.533D-04 0.173D-04 0.579D-03 0.228D-02 0.995D-04
 Coeff-Com: -0.139D-01-0.396D-01-0.187D-01 0.148D+00 0.321D+00 0.600D+00
 Coeff:     -0.145D-05 0.210D-05 0.660D-08 0.377D-07 0.349D-05-0.820D-05
 Coeff:     -0.336D-04-0.533D-04 0.173D-04 0.579D-03 0.228D-02 0.995D-04
 Coeff:     -0.139D-01-0.396D-01-0.187D-01 0.148D+00 0.321D+00 0.600D+00
 Gap=     0.175 Goal=   None    Shift=    0.000
 RMSDP=5.05D-09 MaxDP=2.83D-07 DE= 7.28D-12 OVMax= 6.96D-07

 SCF Done:  E(RPBE1PBE) =  -3193.92065584     A.U. after   18 cycles
            NFock= 18  Conv=0.50D-08     -V/T= 2.0055
 KE= 3.176452390227D+03 PE=-1.840612869294D+04 EE= 6.590556093894D+03
 Leave Link  502 at Sat Aug 12 04:34:44 2023, MaxMem=  4026531840 cpu:            4671.6 elap:             150.4
 (Enter /sw/arch/Centos8/EB_production/2021/software/Gaussian/g16.c01/l508.exe)
 QCSCF skips out because SCF is already converged.
 Leave Link  508 at Sat Aug 12 04:34:44 2023, MaxMem=  4026531840 cpu:               0.6 elap:               0.0
 (Enter /sw/arch/Centos8/EB_production/2021/software/Gaussian/g16.c01/l801.exe)
 DoSCS=F DFT=T ScalE2(SS,OS)=  1.000000  1.000000
 Range of M.O.s used for correlation:     1   612
 NBasis=   612 NAE=   150 NBE=   150 NFC=     0 NFV=     0
 NROrb=    612 NOA=   150 NOB=   150 NVA=   462 NVB=   462
 Leave Link  801 at Sat Aug 12 04:34:44 2023, MaxMem=  4026531840 cpu:               0.8 elap:               0.1
 (Enter /sw/arch/Centos8/EB_production/2021/software/Gaussian/g16.c01/l1002.exe)
 Minotr:  Closed shell wavefunction.
          Direct CPHF calculation.
          Differentiating once with respect to magnetic field using GIAOs.
          Electric field/nuclear overlap derivatives assumed to be zero.
          Requested convergence is 1.0D-08 RMS, and 1.0D-07 maximum.
          Secondary convergence is 1.0D-12 RMS, and 1.0D-12 maximum.
          NewPWx=T KeepS1=F KeepF1=F KeepIn=T MapXYZ=F SortEE=F KeepMc=T.
        26788 words used for storage of precomputed grid.
 Two-electron integral symmetry not used.
          MDV=    4026531840 using IRadAn=       1.
          Solving linear equations simultaneously, MaxMat=      96.
 FoFCou: FMM=F IPFlag=           0 FMFlag=      100000 FMFlg1=        2001
         NFxFlg=           0 DoJE=F BraDBF=F KetDBF=T FulRan=T
         wScrn=  0.000000 ICntrl=      6100 IOpCl=  0 I1Cent=           7 NGrid=          87
         NMat0=    1 NMatS0=      1 NMatT0=    0 NMatD0=    1 NMtDS0=    0 NMtDT0=    0
 Symmetry not used in FoFCou.
   1 Symmetry operations used in ECPInt.
 ECPInt:  NShTT=   52003 NPrTT=  216154 LenC2=   52004 LenP2D=  216154.
 LDataN:  DoStor=T MaxTD1= 5 Len=  102
 FoFJK:  IHMeth= 1 ICntrl=    6127 DoSepK=F KAlg= 0 I1Cent=           0 FoldK=F
 IRaf=         1 NMat=       1 IRICut=       1 DoRegI=T DoRafI=F ISym2E= 0 IDoP0=0 IntGTp=1.
          There are     3 degrees of freedom in the 1st order CPHF.  IDoFFX=0 NUNeed=     3.
      3 vectors produced by pass  0 Test12= 2.31D-12 3.33D-08 XBig12= 1.65D+02 2.19D+00.
 AX will form     3 AO Fock derivatives at one time.
      3 vectors produced by pass  1 Test12= 2.31D-12 3.33D-08 XBig12= 1.21D+00 5.29D-01.
      3 vectors produced by pass  2 Test12= 2.31D-12 3.33D-08 XBig12= 5.64D-02 7.18D-02.
      3 vectors produced by pass  3 Test12= 2.31D-12 3.33D-08 XBig12= 5.15D-04 6.76D-03.
      3 vectors produced by pass  4 Test12= 2.31D-12 3.33D-08 XBig12= 2.70D-05 2.14D-03.
      3 vectors produced by pass  5 Test12= 2.31D-12 3.33D-08 XBig12= 2.30D-07 1.04D-04.
      3 vectors produced by pass  6 Test12= 2.31D-12 3.33D-08 XBig12= 1.05D-09 8.51D-06.
      3 vectors produced by pass  7 Test12= 2.31D-12 3.33D-08 XBig12= 3.45D-11 1.70D-06.
      2 vectors produced by pass  8 Test12= 2.31D-12 3.33D-08 XBig12= 2.75D-13 9.49D-08.
 InvSVY:  IOpt=1 It=  1 EMax= 3.55D-15
 Solved reduced A of dimension    26 with     3 vectors.
 Calculating GIAO nuclear magnetic shielding tensors.
 SCF GIAO Magnetic shielding tensor (ppm):
      1  C    Isotropic =   123.5846   Anisotropy =    84.8103
   XX=   131.2173   YX=   -39.1733   ZX=    32.0930
   XY=   -24.3954   YY=    89.3950   ZY=     0.1676
   XZ=    29.1918   YZ=   -15.3201   ZZ=   150.1416
   Eigenvalues:    71.3305   119.2986   180.1248
      2  C    Isotropic =   126.2778   Anisotropy =    80.0239
   XX=    95.7510   YX=     5.9972   ZX=    53.9056
   XY=     7.3343   YY=   127.2400   ZY=    -2.0899
   XZ=    35.1844   YZ=     0.1562   ZZ=   155.8424
   Eigenvalues:    71.3462   127.8601   179.6271
      3  C    Isotropic =   124.4332   Anisotropy =    81.9902
   XX=   142.2000   YX=    30.8040   ZX=    25.7959
   XY=    18.4655   YY=    80.5535   ZY=     6.0492
   XZ=    24.6723   YZ=    21.1323   ZZ=   150.5461
   Eigenvalues:    71.6271   122.5792   179.0933
      4  C    Isotropic =   119.4188   Anisotropy =    91.4984
   XX=   144.7440   YX=     3.1471   ZX=    39.4067
   XY=    -5.0984   YY=   101.1005   ZY=    15.0003
   XZ=    56.2475   YZ=    22.7175   ZZ=   112.4117
   Eigenvalues:    69.7776   108.0610   180.4177
      5  C    Isotropic =   123.0432   Anisotropy =    82.3220
   XX=   143.1456   YX=     0.7214   ZX=    36.2718
   XY=     9.5745   YY=   103.4441   ZY=   -23.0284
   XZ=    46.2372   YZ=   -32.7913   ZZ=   122.5400
   Eigenvalues:    70.2516   120.9535   177.9245
      6  H    Isotropic =    28.5417   Anisotropy =     4.4599
   XX=    29.4347   YX=     0.2432   ZX=    -1.6126
   XY=    -0.3121   YY=    31.4582   ZY=    -1.1502
   XZ=    -1.1863   YZ=    -0.0417   ZZ=    24.7322
   Eigenvalues:    24.2996    29.8105    31.5150
      7  H    Isotropic =    28.3262   Anisotropy =     6.6383
   XX=    31.0055   YX=    -0.9612   ZX=    -3.7413
   XY=    -0.5818   YY=    27.2215   ZY=     0.3815
   XZ=    -2.4237   YZ=     0.3011   ZZ=    26.7516
   Eigenvalues:    25.1319    27.0950    32.7518
      8  H    Isotropic =    28.2220   Anisotropy =     4.7859
   XX=    28.5978   YX=    -1.5368   ZX=    -0.3946
   XY=    -0.5204   YY=    31.0365   ZY=     0.3638
   XZ=    -0.2772   YZ=    -0.5325   ZZ=    25.0316
   Eigenvalues:    24.9946    28.2587    31.4126
      9  H    Isotropic =    28.8474   Anisotropy =     3.3297
   XX=    28.6249   YX=     1.0760   ZX=    -0.5377
   XY=     1.9288   YY=    29.6949   ZY=    -0.0662
   XZ=    -1.1866   YZ=    -1.0070   ZZ=    28.2225
   Eigenvalues:    27.3228    28.1523    31.0672
     10  H    Isotropic =    28.3415   Anisotropy =     6.0285
   XX=    26.7308   YX=    -1.8389   ZX=     0.3112
   XY=    -2.8039   YY=    31.3994   ZY=    -0.6390
   XZ=    -0.8186   YZ=     0.7221   ZZ=    26.8944
   Eigenvalues:    25.7318    26.9323    32.3606
     11  Fe   Isotropic = -5092.7886   Anisotropy =  9068.8212
   XX= -4270.3236   YX=   188.3243   ZX=  4462.2328
   XY=   234.3177   YY= -8159.1459   ZY=   254.1775
   XZ=  4427.3552   YZ=   234.2773   ZZ= -2848.8963
   Eigenvalues: -8170.6406 -8060.8174   953.0922
     12  C    Isotropic =   122.7835   Anisotropy =    78.0458
   XX=   141.7467   YX=    -5.0639   ZX=    26.3946
   XY=     5.8849   YY=    74.7289   ZY=   -12.5621
   XZ=    22.6077   YZ=   -31.8135   ZZ=   151.8749
   Eigenvalues:    68.1332   125.4033   174.8140
     13  C    Isotropic =   100.8219   Anisotropy =    83.8747
   XX=    85.8941   YX=   -11.7424   ZX=    43.3554
   XY=   -10.5417   YY=    78.3604   ZY=     6.8582
   XZ=    27.3345   YZ=   -12.2857   ZZ=   138.2113
   Eigenvalues:    62.9415    82.7859   156.7384
     14  C    Isotropic =   113.9412   Anisotropy =    87.7202
   XX=    90.4040   YX=    23.7299   ZX=    32.0151
   XY=    13.5133   YY=    99.4962   ZY=    17.7846
   XZ=    22.5799   YZ=    25.8206   ZZ=   151.9234
   Eigenvalues:    74.4554    94.9468   172.4214
     15  C    Isotropic =   116.3803   Anisotropy =    81.9896
   XX=   132.7859   YX=     4.1934   ZX=    28.1024
   XY=    -6.8974   YY=    89.9817   ZY=    33.9816
   XZ=    29.2565   YZ=    54.6864   ZZ=   126.3731
   Eigenvalues:    56.1563   121.9445   171.0400
     16  C    Isotropic =   123.2855   Anisotropy =    81.3513
   XX=   135.0253   YX=     6.5705   ZX=    45.0941
   XY=     7.8772   YY=   125.2789   ZY=    -4.3462
   XZ=    61.6300   YZ=     0.1882   ZZ=   109.5521
   Eigenvalues:    66.7880   125.5487   177.5197
     17  H    Isotropic =    28.1229   Anisotropy =     3.5156
   XX=    29.0887   YX=    -0.1115   ZX=    -2.3851
   XY=    -0.7299   YY=    29.4439   ZY=    -1.3157
   XZ=    -2.6663   YZ=    -0.2870   ZZ=    25.8361
   Eigenvalues:    24.2992    29.6028    30.4667
     18  H    Isotropic =    28.0770   Anisotropy =     4.7145
   XX=    28.2665   YX=    -1.9320   ZX=    -1.6383
   XY=    -0.9332   YY=    30.5126   ZY=    -0.5621
   XZ=    -2.6786   YZ=    -1.0760   ZZ=    25.4517
   Eigenvalues:    23.9750    29.0359    31.2199
     19  H    Isotropic =    28.1367   Anisotropy =     7.1035
   XX=    29.9088   YX=    -0.8928   ZX=    -3.2343
   XY=    -1.0152   YY=    27.0823   ZY=    -0.0092
   XZ=    -4.4946   YZ=     0.5353   ZZ=    27.4191
   Eigenvalues:    24.5537    26.9841    32.8724
     20  C    Isotropic =   160.8348   Anisotropy =    17.2534
   XX=   170.3704   YX=     7.5613   ZX=    -0.0434
   XY=     2.8985   YY=   150.9828   ZY=    -3.1522
   XZ=     7.5210   YZ=    -5.7117   ZZ=   161.1512
   Eigenvalues:   147.6143   162.5530   172.3371
     21  H    Isotropic =    28.3026   Anisotropy =     4.7948
   XX=    27.0359   YX=     3.0641   ZX=    -0.9777
   XY=     2.5839   YY=    29.0414   ZY=     0.9938
   XZ=    -0.1106   YZ=     2.3374   ZZ=    28.8306
   Eigenvalues:    24.5604    28.8484    31.4991
     22  P    Isotropic =   425.7881   Anisotropy =    58.2878
   XX=   431.7322   YX=   -20.2877   ZX=    29.3840
   XY=    -0.7054   YY=   405.9687   ZY=    -5.7872
   XZ=    23.8619   YZ=    -4.8621   ZZ=   439.6634
   Eigenvalues:   401.3437   411.3739   464.6466
     23  C    Isotropic =   170.1767   Anisotropy =     7.9528
   XX=   173.0675   YX=     0.0185   ZX=     1.7394
   XY=     2.4617   YY=   173.8385   ZY=    -5.1323
   XZ=     2.2410   YZ=    -3.3133   ZZ=   163.6242
   Eigenvalues:   161.6437   173.4079   175.4786
     24  H    Isotropic =    29.8309   Anisotropy =     7.4430
   XX=    31.4411   YX=     0.8486   ZX=    -1.5603
   XY=     1.1691   YY=    29.1211   ZY=    -4.8451
   XZ=    -1.8005   YZ=    -4.5256   ZZ=    28.9304
   Eigenvalues:    24.3033    30.3965    34.7929
     25  H    Isotropic =    29.6817   Anisotropy =     8.6672
   XX=    34.7827   YX=     1.8682   ZX=     1.7758
   XY=     0.6476   YY=    28.3743   ZY=    -1.2972
   XZ=     2.8539   YZ=    -1.6895   ZZ=    25.8882
   Eigenvalues:    24.5143    29.0710    35.4599
     26  H    Isotropic =    30.0268   Anisotropy =     5.0948
   XX=    29.2231   YX=     0.5415   ZX=     0.0737
   XY=    -0.6133   YY=    32.3867   ZY=     2.0211
   XZ=     1.2154   YZ=     2.4754   ZZ=    28.4706
   Eigenvalues:    27.2619    29.3952    33.4233
     27  P    Isotropic =   370.8691   Anisotropy =    27.3464
   XX=   356.9119   YX=     2.1417   ZX=   -24.6800
   XY=   -20.1546   YY=   385.9395   ZY=   -20.1766
   XZ=   -23.9288   YZ=     8.1701   ZZ=   369.7559
   Eigenvalues:   335.8662   387.6412   389.1000
     28  C    Isotropic =   149.8139   Anisotropy =    27.0616
   XX=   141.4350   YX=    -6.2029   ZX=     2.5685
   XY=   -13.0815   YY=   140.9146   ZY=     4.4210
   XZ=     6.3737   YZ=    -1.9170   ZZ=   167.0921
   Eigenvalues:   131.0778   150.5089   167.8549
     29  C    Isotropic =   158.2455   Anisotropy =     8.6818
   XX=   155.9497   YX=    -0.4448   ZX=     5.2210
   XY=    -5.2046   YY=   158.3191   ZY=    -3.2839
   XZ=    -1.2887   YZ=    -2.9828   ZZ=   160.4678
   Eigenvalues:   154.0690   156.6342   164.0334
     30  C    Isotropic =   156.9876   Anisotropy =    16.1393
   XX=   158.4077   YX=    -5.5730   ZX=     6.3028
   XY=    -1.1773   YY=   157.1119   ZY=    -8.4353
   XZ=     7.7207   YZ=    -2.7798   ZZ=   155.4432
   Eigenvalues:   148.8907   154.3250   167.7472
     31  H    Isotropic =    30.9059   Anisotropy =     7.7848
   XX=    28.0061   YX=    -2.5329   ZX=     3.1208
   XY=    -0.6216   YY=    34.9612   ZY=     0.3226
   XZ=     3.9540   YZ=    -2.9275   ZZ=    29.7505
   Eigenvalues:    25.2141    31.4079    36.0958
     32  C    Isotropic =   162.6196   Anisotropy =     7.5791
   XX=   156.2305   YX=    -4.7068   ZX=     2.5331
   XY=     2.4384   YY=   165.6419   ZY=    -3.5636
   XZ=     2.5519   YZ=     1.1351   ZZ=   165.9863
   Eigenvalues:   155.5410   164.6454   167.6723
     33  H    Isotropic =    30.2370   Anisotropy =     6.3542
   XX=    25.3849   YX=     1.2975   ZX=     2.3037
   XY=     1.3292   YY=    32.0591   ZY=     1.3849
   XZ=     1.8205   YZ=     0.5818   ZZ=    33.2672
   Eigenvalues:    24.7266    31.5113    34.4732
     34  H    Isotropic =    29.6843   Anisotropy =     7.5831
   XX=    31.9446   YX=    -1.8868   ZX=     2.6636
   XY=    -0.6336   YY=    26.8730   ZY=    -2.9470
   XZ=     1.5879   YZ=    -4.3179   ZZ=    30.2351
   Eigenvalues:    24.5505    29.7627    34.7396
     35  C    Isotropic =   163.0944   Anisotropy =     7.2238
   XX=   160.3985   YX=    -1.1627   ZX=     2.0696
   XY=    -8.1159   YY=   163.4409   ZY=    -2.3831
   XZ=    -0.2945   YZ=    -0.4132   ZZ=   165.4437
   Eigenvalues:   157.0361   164.3368   167.9102
     36  H    Isotropic =    29.7730   Anisotropy =     6.2715
   XX=    31.3694   YX=     2.1736   ZX=    -0.6683
   XY=     2.0300   YY=    30.3729   ZY=    -2.9478
   XZ=     0.4351   YZ=    -3.7697   ZZ=    27.5767
   Eigenvalues:    25.1392    30.2258    33.9540
     37  H    Isotropic =    30.6440   Anisotropy =     5.2483
   XX=    30.6863   YX=    -3.7454   ZX=    -0.1737
   XY=    -2.8764   YY=    30.1901   ZY=     1.4644
   XZ=     0.5374   YZ=     1.9855   ZZ=    31.0556
   Eigenvalues:    26.6635    31.1257    34.1429
     38  C    Isotropic =   165.3527   Anisotropy =     4.9515
   XX=   164.0166   YX=    -0.2529   ZX=    -2.3762
   XY=     0.7458   YY=   165.7144   ZY=     7.0248
   XZ=     0.9840   YZ=    -1.8509   ZZ=   166.3271
   Eigenvalues:   162.9966   164.4078   168.6537
     39  H    Isotropic =    30.2761   Anisotropy =    10.2575
   XX=    30.4642   YX=     3.2724   ZX=    -1.5524
   XY=     3.9467   YY=    29.8497   ZY=    -4.3264
   XZ=    -1.9865   YZ=    -5.1579   ZZ=    30.5146
   Eigenvalues:    24.9301    28.7838    37.1145
     40  H    Isotropic =    30.9318   Anisotropy =     5.8975
   XX=    29.4650   YX=    -3.3649   ZX=    -1.5626
   XY=    -1.9004   YY=    29.5406   ZY=     0.5007
   XZ=    -1.8998   YZ=     0.7048   ZZ=    33.7899
   Eigenvalues:    26.7693    31.1627    34.8635
     41  H    Isotropic =    30.3813   Anisotropy =    10.8200
   XX=    35.8732   YX=    -1.4415   ZX=     3.1026
   XY=    -1.4834   YY=    26.9678   ZY=    -2.0792
   XZ=     3.5698   YZ=    -2.5523   ZZ=    28.3029
   Eigenvalues:    25.1395    28.4097    37.5946
     42  H    Isotropic =    30.8607   Anisotropy =     5.8950
   XX=    27.4887   YX=     1.8670   ZX=     2.8583
   XY=     1.0320   YY=    33.3485   ZY=     0.9691
   XZ=     2.7549   YZ=     0.9305   ZZ=    31.7449
   Eigenvalues:    25.9858    31.8056    34.7907
     43  H    Isotropic =    30.7426   Anisotropy =     8.9580
   XX=    28.8285   YX=    -2.7812   ZX=     0.5850
   XY=    -2.3997   YY=    35.5341   ZY=    -0.5970
   XZ=     0.9515   YZ=    -2.2994   ZZ=    27.8652
   Eigenvalues:    27.4401    28.0731    36.7146
     44  H    Isotropic =    30.4731   Anisotropy =    11.4748
   XX=    27.9905   YX=    -0.3715   ZX=     2.2789
   XY=    -0.1716   YY=    27.2631   ZY=    -3.6676
   XZ=     2.3681   YZ=    -4.0710   ZZ=    36.1659
   Eigenvalues:    25.6524    27.6441    38.1230
     45  C    Isotropic =   152.5444   Anisotropy =    26.3875
   XX=   144.0460   YX=     2.6975   ZX=    11.9824
   XY=    -4.0460   YY=   151.4060   ZY=    -0.8736
   XZ=    16.8295   YZ=     1.7596   ZZ=   162.1814
   Eigenvalues:   136.0494   151.4479   170.1361
     46  C    Isotropic =   162.8478   Anisotropy =     8.2422
   XX=   156.3648   YX=    -2.8215   ZX=     0.5736
   XY=     0.4975   YY=   167.8086   ZY=     2.0455
   XZ=    -4.3300   YZ=     0.0795   ZZ=   164.3699
   Eigenvalues:   155.8766   164.3241   168.3426
     47  C    Isotropic =   160.8415   Anisotropy =     6.9965
   XX=   157.1027   YX=     3.8944   ZX=     2.0894
   XY=     3.1307   YY=   162.5092   ZY=     0.3190
   XZ=     4.5547   YZ=    -5.8935   ZZ=   162.9127
   Eigenvalues:   153.4744   163.5443   165.5059
     48  H    Isotropic =    29.9697   Anisotropy =     4.3500
   XX=    26.2240   YX=     1.2882   ZX=     0.9792
   XY=     1.3122   YY=    31.8308   ZY=    -1.3482
   XZ=    -0.0230   YZ=    -0.5934   ZZ=    31.8543
   Eigenvalues:    25.8595    31.1799    32.8697
     49  C    Isotropic =   162.8736   Anisotropy =     4.4381
   XX=   159.3606   YX=     3.3663   ZX=     1.0231
   XY=    -0.1577   YY=   165.4163   ZY=     2.9211
   XZ=     4.4871   YZ=    -4.0427   ZZ=   163.8438
   Eigenvalues:   157.6811   165.1073   165.8323
     50  H    Isotropic =    30.3660   Anisotropy =     6.4047
   XX=    26.3373   YX=    -2.5621   ZX=     3.3364
   XY=    -1.5411   YY=    31.2717   ZY=     0.3950
   XZ=     2.5521   YZ=    -0.0201   ZZ=    33.4890
   Eigenvalues:    24.6757    31.7865    34.6358
     51  H    Isotropic =    30.1031   Anisotropy =     6.8119
   XX=    34.2252   YX=     0.4907   ZX=    -1.8434
   XY=     0.4144   YY=    28.6209   ZY=     3.2099
   XZ=    -1.5571   YZ=     2.9720   ZZ=    27.4632
   Eigenvalues:    24.6292    31.0358    34.6444
     52  C    Isotropic =   162.6080   Anisotropy =     6.3631
   XX=   157.3195   YX=     1.2572   ZX=     2.8683
   XY=     5.7961   YY=   165.5391   ZY=     0.1739
   XZ=    -4.3463   YZ=     0.1641   ZZ=   164.9654
   Eigenvalues:   155.9511   165.0228   166.8501
     53  H    Isotropic =    27.7710   Anisotropy =    10.9824
   XX=    27.9905   YX=    -4.4546   ZX=     0.5543
   XY=    -3.7605   YY=    32.3322   ZY=     2.6372
   XZ=     1.6659   YZ=     2.9316   ZZ=    22.9903
   Eigenvalues:    21.3703    26.8500    35.0926
     54  H    Isotropic =    30.1671   Anisotropy =     6.0697
   XX=    27.8712   YX=     1.7691   ZX=     0.4291
   XY=     2.2486   YY=    28.5099   ZY=     0.5194
   XZ=     1.0031   YZ=    -0.4706   ZZ=    34.1203
   Eigenvalues:    26.1212    30.1665    34.2136
     55  C    Isotropic =   164.9259   Anisotropy =     6.1138
   XX=   162.5126   YX=    -0.8609   ZX=    -0.9700
   XY=    -2.2185   YY=   163.3857   ZY=    -4.4031
   XZ=     2.1719   YZ=     3.5052   ZZ=   168.8796
   Eigenvalues:   161.3429   164.4331   169.0018
     56  H    Isotropic =    30.0838   Anisotropy =    10.7680
   XX=    29.9904   YX=    -3.6444   ZX=    -1.0015
   XY=    -3.8170   YY=    33.7085   ZY=     3.5755
   XZ=    -1.0334   YZ=     3.7070   ZZ=    26.5525
   Eigenvalues:    24.9550    28.0339    37.2625
     57  H    Isotropic =    30.5028   Anisotropy =     8.1884
   XX=    28.0313   YX=     1.0300   ZX=    -2.4277
   XY=     0.5034   YY=    28.2682   ZY=     1.4641
   XZ=    -2.1468   YZ=     0.6634   ZZ=    35.2089
   Eigenvalues:    26.6664    28.8803    35.9618
     58  H    Isotropic =    30.1092   Anisotropy =     9.0628
   XX=    35.3802   YX=     2.2359   ZX=    -0.7036
   XY=     2.2145   YY=    29.7271   ZY=     1.4819
   XZ=    -0.5938   YZ=     2.1178   ZZ=    25.2202
   Eigenvalues:    24.4144    29.7621    36.1510
     59  H    Isotropic =    30.6522   Anisotropy =     5.5175
   XX=    28.1847   YX=    -1.5718   ZX=     3.8139
   XY=    -1.7113   YY=    31.8197   ZY=    -0.5713
   XZ=     2.7614   YZ=     0.0611   ZZ=    31.9523
   Eigenvalues:    25.9861    31.6400    34.3306
     60  H    Isotropic =    30.5511   Anisotropy =     8.2020
   XX=    28.0429   YX=     1.8212   ZX=    -1.0742
   XY=     1.5061   YY=    34.4812   ZY=    -3.2196
   XZ=    -0.7675   YZ=    -2.0808   ZZ=    29.1292
   Eigenvalues:    27.5099    28.1243    36.0191
     61  H    Isotropic =    30.2529   Anisotropy =    11.2905
   XX=    28.9985   YX=     2.6440   ZX=     2.3279
   XY=     2.4720   YY=    32.1805   ZY=     5.2065
   XZ=     2.3182   YZ=     5.5766   ZZ=    29.5797
   Eigenvalues:    25.3115    27.6673    37.7799
     62  C    Isotropic =   160.4771   Anisotropy =    16.0596
   XX=   156.0453   YX=     6.0504   ZX=    -0.8843
   XY=     6.5679   YY=   156.4050   ZY=     5.0562
   XZ=     0.8817   YZ=     5.2904   ZZ=   168.9811
   Eigenvalues:   149.2190   161.0289   171.1835
     63  C    Isotropic =   161.4918   Anisotropy =    17.2924
   XX=   164.1912   YX=     3.3563   ZX=    -4.2677
   XY=     4.4740   YY=   157.7685   ZY=   -10.8495
   XZ=    -3.4429   YZ=    -7.5687   ZZ=   162.5156
   Eigenvalues:   150.5874   160.8679   173.0200
     64  C    Isotropic =   156.2392   Anisotropy =    38.4215
   XX=   142.4781   YX=    10.3662   ZX=    -6.2234
   XY=    11.6684   YY=   171.8116   ZY=   -10.2739
   XZ=    -1.4935   YZ=   -15.0065   ZZ=   154.4280
   Eigenvalues:   138.7904   148.0737   181.8536
     65  H    Isotropic =    31.6458   Anisotropy =     7.3495
   XX=    28.2802   YX=     1.4833   ZX=     0.8524
   XY=     1.0308   YY=    30.4058   ZY=    -1.2611
   XZ=     1.9994   YZ=    -0.2434   ZZ=    36.2513
   Eigenvalues:    27.4038    30.9880    36.5454
     66  H    Isotropic =    31.7679   Anisotropy =    13.2768
   XX=    34.8302   YX=     4.4020   ZX=     5.3314
   XY=     5.4550   YY=    30.8705   ZY=    -0.1666
   XZ=     6.9819   YZ=    -0.3546   ZZ=    29.6031
   Eigenvalues:    24.0348    30.6499    40.6191
     67  H    Isotropic =    30.8352   Anisotropy =    11.0770
   XX=    28.0282   YX=     0.3988   ZX=     1.2722
   XY=    -0.4182   YY=    38.0460   ZY=    -0.4602
   XZ=     3.3722   YZ=    -2.3333   ZZ=    26.4314
   Eigenvalues:    24.6775    29.6083    38.2199
     68  C    Isotropic =   162.8984   Anisotropy =    27.2946
   XX=   160.7916   YX=   -12.5621   ZX=    -0.8321
   XY=   -13.8117   YY=   170.3434   ZY=     2.8275
   XZ=    -3.7408   YZ=     8.4706   ZZ=   157.5602
   Eigenvalues:   151.1764   156.4240   181.0948
     69  H    Isotropic =    30.3190   Anisotropy =     8.4806
   XX=    34.9391   YX=     2.8815   ZX=     2.0567
   XY=    -0.5164   YY=    28.5003   ZY=     2.6223
   XZ=     1.4937   YZ=     4.8201   ZZ=    27.5177
   Eigenvalues:    24.2251    30.7592    35.9728
     70  H    Isotropic =    31.2517   Anisotropy =    10.0146
   XX=    28.2977   YX=    -0.1681   ZX=    -0.6480
   XY=    -0.6673   YY=    30.9288   ZY=     4.7790
   XZ=     0.4223   YZ=     4.9524   ZZ=    34.5287
   Eigenvalues:    27.4484    28.3786    37.9281
     71  H    Isotropic =    30.0880   Anisotropy =     5.8240
   XX=    26.6991   YX=     0.0665   ZX=    -1.3351
   XY=     0.1897   YY=    33.7922   ZY=    -1.9680
   XZ=    -0.8247   YZ=     0.3192   ZZ=    29.7727
   Eigenvalues:    26.3554    29.9379    33.9707
     72  C    Isotropic =   158.5619   Anisotropy =    30.8214
   XX=   176.2844   YX=     7.7099   ZX=     1.1012
   XY=     9.1676   YY=   146.2625   ZY=    -1.2878
   XZ=     7.0711   YZ=     1.6365   ZZ=   153.1389
   Eigenvalues:   143.9669   152.6094   179.1095
     73  H    Isotropic =    30.5815   Anisotropy =     7.8636
   XX=    31.0620   YX=     5.6935   ZX=    -0.2030
   XY=     4.3954   YY=    30.1327   ZY=    -2.0967
   XZ=     0.5691   YZ=    -0.9969   ZZ=    30.5499
   Eigenvalues:    25.2258    30.6948    35.8239
     74  H    Isotropic =    31.2687   Anisotropy =     9.4748
   XX=    30.9571   YX=     2.2246   ZX=     4.3833
   XY=     1.9559   YY=    28.5252   ZY=     1.1647
   XZ=     3.8179   YZ=     1.1834   ZZ=    34.3237
   Eigenvalues:    27.0535    29.1673    37.5852
     75  H    Isotropic =    30.6939   Anisotropy =     6.8253
   XX=    34.5649   YX=    -2.7255   ZX=     0.1638
   XY=    -1.2046   YY=    28.7391   ZY=    -0.2076
   XZ=     1.0016   YZ=    -0.8420   ZZ=    28.7776
   Eigenvalues:    27.9859    28.8516    35.2440
     76  C    Isotropic =   159.5951   Anisotropy =    39.8218
   XX=   151.1863   YX=     5.6059   ZX=     5.6621
   XY=     9.2149   YY=   142.7545   ZY=     4.8622
   XZ=     2.4948   YZ=     5.1385   ZZ=   184.8446
   Eigenvalues:   138.3284   154.3140   186.1430
     77  H    Isotropic =    30.3209   Anisotropy =     5.0783
   XX=    33.0630   YX=    -0.1583   ZX=     0.3398
   XY=     0.2432   YY=    25.7502   ZY=    -0.9305
   XZ=     1.5192   YZ=    -1.8024   ZZ=    32.1495
   Eigenvalues:    25.4637    31.7926    33.7064
     78  H    Isotropic =    30.9463   Anisotropy =    10.0876
   XX=    29.6135   YX=     1.7786   ZX=    -2.5873
   XY=     1.6804   YY=    27.8171   ZY=    -1.6817
   XZ=    -4.0001   YZ=    -2.8015   ZZ=    35.4082
   Eigenvalues:    26.7573    28.4102    37.6713
     79  H    Isotropic =    30.1896   Anisotropy =     7.1582
   XX=    27.0420   YX=     1.4531   ZX=    -2.0301
   XY=     1.2013   YY=    31.9107   ZY=     2.4812
   XZ=    -1.9885   YZ=     3.8566   ZZ=    31.6162
   Eigenvalues:    25.3109    30.2962    34.9618
     80  C    Isotropic =   154.3180   Anisotropy =    45.0731
   XX=   184.1073   YX=    -2.7277   ZX=     4.3260
   XY=    -0.8899   YY=   137.2963   ZY=     0.5165
   XZ=     1.3546   YZ=    -1.1304   ZZ=   141.5505
   Eigenvalues:   137.2171   141.3702   184.3668
     81  H    Isotropic =    30.3890   Anisotropy =     6.7809
   XX=    33.4053   YX=    -3.8579   ZX=    -0.7792
   XY=    -1.6185   YY=    29.8191   ZY=    -2.2661
   XZ=    -0.6093   YZ=    -1.9440   ZZ=    27.9427
   Eigenvalues:    25.9406    30.3168    34.9096
     82  H    Isotropic =    30.7818   Anisotropy =     9.9813
   XX=    35.1046   YX=     1.6404   ZX=    -4.8253
   XY=     0.9990   YY=    26.6626   ZY=    -0.7643
   XZ=    -2.6789   YZ=    -0.7199   ZZ=    30.5783
   Eigenvalues:    26.4498    28.4596    37.4360
     83  H    Isotropic =    30.6971   Anisotropy =     7.2069
   XX=    33.6915   YX=     3.6644   ZX=     1.7842
   XY=     2.0927   YY=    28.2285   ZY=     1.0185
   XZ=     1.1498   YZ=     0.9980   ZZ=    30.1712
   Eigenvalues:    26.9493    29.6403    35.5016
     84  C    Isotropic =   159.5432   Anisotropy =    27.2976
   XX=   158.2833   YX=    -3.9047   ZX=     3.4251
   XY=   -10.5330   YY=   174.2116   ZY=     9.9109
   XZ=     7.2046   YZ=     4.1695   ZZ=   146.1347
   Eigenvalues:   141.5106   159.3774   177.7416
     85  H    Isotropic =    30.5948   Anisotropy =     9.8997
   XX=    28.5048   YX=     2.3058   ZX=    -1.9145
   XY=     2.7753   YY=    35.0141   ZY=    -3.5347
   XZ=    -1.3669   YZ=    -2.5467   ZZ=    28.2657
   Eigenvalues:    26.6741    27.9158    37.1946
     86  H    Isotropic =    30.0181   Anisotropy =     5.9464
   XX=    33.8892   YX=     0.6208   ZX=    -0.4711
   XY=    -1.5367   YY=    31.4988   ZY=    -1.2179
   XZ=     0.6675   YZ=    -0.7398   ZZ=    24.6662
   Eigenvalues:    24.5286    31.5433    33.9823
     87  H    Isotropic =    30.2870   Anisotropy =     5.7111
   XX=    26.9496   YX=     1.8972   ZX=     0.1917
   XY=     2.1067   YY=    32.3109   ZY=     2.3949
   XZ=     0.0848   YZ=     1.0180   ZZ=    31.6004
   Eigenvalues:    26.2510    30.5155    34.0944
 End of Minotr F.D. properties file   721 does not exist.
 End of Minotr F.D. properties file   722 does not exist.
 End of Minotr F.D. properties file   788 does not exist.
 Leave Link 1002 at Sat Aug 12 04:37:00 2023, MaxMem=  4026531840 cpu:            3720.8 elap:             136.1
 (Enter /sw/arch/Centos8/EB_production/2021/software/Gaussian/g16.c01/l601.exe)
 Copying SCF densities to generalized density rwf, IOpCl= 0 IROHF=0.

 **********************************************************************

            Population analysis using the SCF Density.

 **********************************************************************

 Alpha  occ. eigenvalues -- -256.35328 -77.17258 -77.16949 -30.12785 -25.97633
 Alpha  occ. eigenvalues --  -25.95770 -25.95707 -10.25383 -10.24872 -10.24438
 Alpha  occ. eigenvalues --  -10.24405 -10.24323 -10.24306 -10.24253 -10.24235
 Alpha  occ. eigenvalues --  -10.24226 -10.24211 -10.24164 -10.24057 -10.24006
 Alpha  occ. eigenvalues --  -10.23040 -10.22796 -10.22151 -10.22095 -10.22007
 Alpha  occ. eigenvalues --  -10.21902 -10.21885 -10.21878 -10.21866 -10.21841
 Alpha  occ. eigenvalues --  -10.21768 -10.21711 -10.21705 -10.21407 -10.21254
 Alpha  occ. eigenvalues --  -10.21140 -10.21122 -10.21046 -10.20822  -6.58221
 Alpha  occ. eigenvalues --   -6.57903  -4.72288  -4.72247  -4.71959  -4.71927
 Alpha  occ. eigenvalues --   -4.71726  -4.71386  -3.45898  -2.24855  -2.20176
 Alpha  occ. eigenvalues --   -2.20061  -0.92150  -0.90353  -0.85260  -0.84634
 Alpha  occ. eigenvalues --   -0.83595  -0.81518  -0.80044  -0.77176  -0.75359
 Alpha  occ. eigenvalues --   -0.75205  -0.74801  -0.73249  -0.73158  -0.73065
 Alpha  occ. eigenvalues --   -0.71612  -0.69931  -0.69581  -0.68680  -0.68506
 Alpha  occ. eigenvalues --   -0.65962  -0.64776  -0.61806  -0.61207  -0.61072
 Alpha  occ. eigenvalues --   -0.60647  -0.58067  -0.56645  -0.56151  -0.56077
 Alpha  occ. eigenvalues --   -0.55812  -0.55656  -0.55242  -0.54926  -0.52978
 Alpha  occ. eigenvalues --   -0.51266  -0.50723  -0.49179  -0.47617  -0.47040
 Alpha  occ. eigenvalues --   -0.46716  -0.45819  -0.45481  -0.45099  -0.45047
 Alpha  occ. eigenvalues --   -0.44878  -0.44759  -0.44047  -0.43774  -0.43307
 Alpha  occ. eigenvalues --   -0.43034  -0.42921  -0.42666  -0.42289  -0.42059
 Alpha  occ. eigenvalues --   -0.41834  -0.40979  -0.40428  -0.39827  -0.39755
 Alpha  occ. eigenvalues --   -0.39612  -0.39359  -0.39323  -0.39153  -0.38763
 Alpha  occ. eigenvalues --   -0.38600  -0.38419  -0.38275  -0.38147  -0.37583
 Alpha  occ. eigenvalues --   -0.37527  -0.36928  -0.36813  -0.36450  -0.36006
 Alpha  occ. eigenvalues --   -0.35777  -0.35178  -0.34824  -0.34703  -0.34257
 Alpha  occ. eigenvalues --   -0.34123  -0.33147  -0.33096  -0.32695  -0.31879
 Alpha  occ. eigenvalues --   -0.31382  -0.31236  -0.30654  -0.30477  -0.28865
 Alpha  occ. eigenvalues --   -0.28508  -0.28274  -0.27748  -0.26284  -0.25299
 Alpha  occ. eigenvalues --   -0.24837  -0.22466  -0.21947  -0.21566  -0.18082
 Alpha virt. eigenvalues --   -0.00566  -0.00087   0.03014   0.04261   0.05244
 Alpha virt. eigenvalues --    0.05967   0.06260   0.06461   0.06618   0.06891
 Alpha virt. eigenvalues --    0.07291   0.07559   0.08101   0.08142   0.09044
 Alpha virt. eigenvalues --    0.09070   0.09438   0.09610   0.09900   0.10460
 Alpha virt. eigenvalues --    0.10556   0.10838   0.11001   0.11668   0.11947
 Alpha virt. eigenvalues --    0.12259   0.12543   0.12886   0.12999   0.13517
 Alpha virt. eigenvalues --    0.13981   0.14329   0.14394   0.14599   0.14811
 Alpha virt. eigenvalues --    0.14963   0.15180   0.15287   0.15481   0.15820
 Alpha virt. eigenvalues --    0.15901   0.16166   0.16310   0.16746   0.16849
 Alpha virt. eigenvalues --    0.17278   0.17357   0.17565   0.17910   0.18209
 Alpha virt. eigenvalues --    0.18417   0.19018   0.19191   0.19684   0.19874
 Alpha virt. eigenvalues --    0.20806   0.20942   0.21308   0.21462   0.21792
 Alpha virt. eigenvalues --    0.22079   0.22484   0.22737   0.22773   0.23083
 Alpha virt. eigenvalues --    0.23314   0.23525   0.23964   0.24447   0.24495
 Alpha virt. eigenvalues --    0.24899   0.25376   0.25413   0.25938   0.26128
 Alpha virt. eigenvalues --    0.26741   0.26778   0.26969   0.27764   0.28029
 Alpha virt. eigenvalues --    0.28302   0.28543   0.29027   0.29097   0.29622
 Alpha virt. eigenvalues --    0.29999   0.30421   0.30592   0.31644   0.32326
 Alpha virt. eigenvalues --    0.33458   0.33729   0.35505   0.35755   0.37092
 Alpha virt. eigenvalues --    0.37945   0.38167   0.39421   0.39804   0.41396
 Alpha virt. eigenvalues --    0.41725   0.42887   0.42977   0.43223   0.43613
 Alpha virt. eigenvalues --    0.44351   0.44865   0.45121   0.45797   0.46303
 Alpha virt. eigenvalues --    0.46467   0.46690   0.46802   0.47317   0.47676
 Alpha virt. eigenvalues --    0.48044   0.48500   0.48875   0.49427   0.49732
 Alpha virt. eigenvalues --    0.49992   0.50842   0.51251   0.52069   0.52415
 Alpha virt. eigenvalues --    0.53571   0.53959   0.55351   0.55639   0.56206
 Alpha virt. eigenvalues --    0.57013   0.57498   0.57652   0.58777   0.58985
 Alpha virt. eigenvalues --    0.59517   0.59827   0.60313   0.61450   0.61492
 Alpha virt. eigenvalues --    0.61831   0.62523   0.62637   0.62753   0.63894
 Alpha virt. eigenvalues --    0.64406   0.64793   0.65229   0.65571   0.65790
 Alpha virt. eigenvalues --    0.65889   0.66233   0.66613   0.66713   0.67058
 Alpha virt. eigenvalues --    0.67246   0.68076   0.68236   0.68453   0.68648
 Alpha virt. eigenvalues --    0.69243   0.69306   0.69549   0.69609   0.69648
 Alpha virt. eigenvalues --    0.69846   0.70273   0.70574   0.70710   0.71104
 Alpha virt. eigenvalues --    0.71253   0.71285   0.71821   0.71938   0.72049
 Alpha virt. eigenvalues --    0.72254   0.72456   0.72617   0.72683   0.72809
 Alpha virt. eigenvalues --    0.73022   0.73212   0.73368   0.73509   0.73597
 Alpha virt. eigenvalues --    0.73780   0.74394   0.74488   0.74699   0.74870
 Alpha virt. eigenvalues --    0.74957   0.75273   0.75473   0.75532   0.75659
 Alpha virt. eigenvalues --    0.75802   0.76045   0.76372   0.76622   0.76805
 Alpha virt. eigenvalues --    0.76987   0.77106   0.77358   0.77408   0.77975
 Alpha virt. eigenvalues --    0.78109   0.78505   0.78670   0.79236   0.79392
 Alpha virt. eigenvalues --    0.79689   0.80044   0.80382   0.80640   0.80716
 Alpha virt. eigenvalues --    0.81126   0.81563   0.81993   0.82308   0.82560
 Alpha virt. eigenvalues --    0.83464   0.84056   0.84233   0.84750   0.85109
 Alpha virt. eigenvalues --    0.85359   0.86124   0.86402   0.86449   0.87034
 Alpha virt. eigenvalues --    0.87320   0.87744   0.88226   0.88675   0.89011
 Alpha virt. eigenvalues --    0.89559   0.90466   0.90858   0.91122   0.91538
 Alpha virt. eigenvalues --    0.92089   0.92984   0.93366   0.93806   0.94034
 Alpha virt. eigenvalues --    0.94926   0.95921   0.96146   0.96562   0.96808
 Alpha virt. eigenvalues --    0.97587   0.98751   0.99450   1.00498   1.01157
 Alpha virt. eigenvalues --    1.01921   1.02496   1.02900   1.03790   1.04242
[...]
   367. RY*(   2) C  45                  0.00305     0.92892   
   368. RY*(   3) C  45                  0.00269     0.94398   
   369. RY*(   4) C  45                  0.00169     1.01419   
   370. RY*(   5) C  45                  0.00048     2.08404   
   371. RY*(   6) C  45                  0.00031     2.00222   
   372. RY*(   7) C  45                  0.00020     2.01429   
   373. RY*(   8) C  45                  0.00017     2.02685   
   374. RY*(   9) C  45                  0.00012     1.97408   
   375. RY*(   1) C  46                  0.00594     1.04164   
   376. RY*(   2) C  46                  0.00308     0.83305   
   377. RY*(   3) C  46                  0.00115     0.94010   
   378. RY*(   4) C  46                  0.00064     1.01796   
   379. RY*(   5) C  46                  0.00030     1.85943   
   380. RY*(   6) C  46                  0.00017     1.86185   
   381. RY*(   7) C  46                  0.00011     2.10811   
   382. RY*(   8) C  46                  0.00002     2.01198   
   383. RY*(   9) C  46                  0.00002     2.05461   
   384. RY*(   1) C  47                  0.00542     1.09887   
   385. RY*(   2) C  47                  0.00311     0.92204   
   386. RY*(   3) C  47                  0.00134     0.86837   
   387. RY*(   4) C  47                  0.00099     1.11657   
   388. RY*(   5) C  47                  0.00028     1.90673   
   389. RY*(   6) C  47                  0.00022     1.84472   
   390. RY*(   7) C  47                  0.00015     2.25350   
   391. RY*(   8) C  47                  0.00005     2.02866   
   392. RY*(   9) C  47                  0.00003     2.06065   
   393. RY*(   1) H  48                  0.00389     0.47228   
   394. RY*(   1) C  49                  0.00591     1.03158   
   395. RY*(   2) C  49                  0.00168     1.14630   
   396. RY*(   3) C  49                  0.00126     0.68613   
   397. RY*(   4) C  49                  0.00056     1.04190   
   398. RY*(   5) C  49                  0.00033     1.84370   
   399. RY*(   6) C  49                  0.00017     2.21800   
   400. RY*(   7) C  49                  0.00006     1.71872   
   401. RY*(   8) C  49                  0.00001     1.82903   
   402. RY*(   9) C  49                  0.00002     2.04222   
   403. RY*(   1) H  50                  0.00308     0.52687   
   404. RY*(   1) H  51                  0.00305     0.38787   
   405. RY*(   1) C  52                  0.00584     1.04063   
   406. RY*(   2) C  52                  0.00186     1.01658   
   407. RY*(   3) C  52                  0.00133     0.80137   
   408. RY*(   4) C  52                  0.00054     1.04864   
   409. RY*(   5) C  52                  0.00033     1.85624   
   410. RY*(   6) C  52                  0.00015     2.23834   
   411. RY*(   7) C  52                  0.00010     1.72229   
   412. RY*(   8) C  52                  0.00002     1.90057   
   413. RY*(   9) C  52                  0.00002     2.04706   
   414. RY*(   1) H  53                  0.00621     0.76093   
   415. RY*(   1) H  54                  0.00344     0.52957   
   416. RY*(   1) C  55                  0.00527     1.05293   
   417. RY*(   2) C  55                  0.00167     1.13803   
   418. RY*(   3) C  55                  0.00123     0.68704   
   419. RY*(   4) C  55                  0.00043     1.02629   
   420. RY*(   5) C  55                  0.00033     1.83502   
   421. RY*(   6) C  55                  0.00015     2.22248   
   422. RY*(   7) C  55                  0.00006     1.73338   
   423. RY*(   8) C  55                  0.00001     1.86427   
   424. RY*(   9) C  55                  0.00002     1.99768   
   425. RY*(   1) H  56                  0.00228     0.36845   
   426. RY*(   1) H  57                  0.00304     0.39566   
   427. RY*(   1) H  58                  0.00243     0.39230   
   428. RY*(   1) H  59                  0.00300     0.45721   
   429. RY*(   1) H  60                  0.00294     0.39663   
   430. RY*(   1) H  61                  0.00232     0.36733   
   431. RY*(   1) C  62                  0.00380     1.02590   
   432. RY*(   2) C  62                  0.00339     0.90137   
   433. RY*(   3) C  62                  0.00262     0.88861   
   434. RY*(   4) C  62                  0.00102     0.98313   
   435. RY*(   5) C  62                  0.00064     2.00733   
   436. RY*(   6) C  62                  0.00062     1.93436   
   437. RY*(   7) C  62                  0.00059     2.17501   
   438. RY*(   8) C  62                  0.00036     2.20844   
   439. RY*(   9) C  62                  0.00035     1.99443   
   440. RY*(   1) C  63                  0.00389     0.82006   
   441. RY*(   2) C  63                  0.00349     1.08714   
   442. RY*(   3) C  63                  0.00285     0.88814   
   443. RY*(   4) C  63                  0.00097     1.15094   
   444. RY*(   5) C  63                  0.00063     1.96556   
   445. RY*(   6) C  63                  0.00056     2.04074   
   446. RY*(   7) C  63                  0.00049     1.99346   
   447. RY*(   8) C  63                  0.00039     1.93587   
   448. RY*(   9) C  63                  0.00032     2.16725   
   449. RY*(   1) C  64                  0.00581     0.87175   
   450. RY*(   2) C  64                  0.00406     0.88820   
   451. RY*(   3) C  64                  0.00185     0.90838   
   452. RY*(   4) C  64                  0.00051     0.73767   
   453. RY*(   5) C  64                  0.00010     2.13283   
   454. RY*(   6) C  64                  0.00004     2.10187   
   455. RY*(   7) C  64                  0.00002     2.01337   
   456. RY*(   8) C  64                  0.00002     2.03075   
   457. RY*(   9) C  64                  0.00001     1.91426   
   458. RY*(   1) H  65                  0.00221     0.41139   
   459. RY*(   1) H  66                  0.00389     0.66246   
   460. RY*(   1) H  67                  0.00350     0.63562   
   461. RY*(   1) C  68                  0.00454     0.86615   
   462. RY*(   2) C  68                  0.00412     0.84752   
   463. RY*(   3) C  68                  0.00227     0.82099   
   464. RY*(   4) C  68                  0.00026     0.77206   
   465. RY*(   5) C  68                  0.00007     1.95386   
   466. RY*(   6) C  68                  0.00001     1.95045   
   467. RY*(   7) C  68                  0.00001     2.02912   
   468. RY*(   8) C  68                  0.00001     2.00528   
   469. RY*(   9) C  68                  0.00002     2.13205   
   470. RY*(   1) H  69                  0.00205     0.59673   
   471. RY*(   1) H  70                  0.00268     0.39812   
   472. RY*(   1) H  71                  0.00142     0.50511   
   473. RY*(   1) C  72                  0.00514     0.87660   
   474. RY*(   2) C  72                  0.00430     0.85459   
   475. RY*(   3) C  72                  0.00196     0.88391   
   476. RY*(   4) C  72                  0.00028     0.69544   
   477. RY*(   5) C  72                  0.00006     2.05539   
   478. RY*(   6) C  72                  0.00002     1.96188   
   479. RY*(   7) C  72                  0.00001     1.92391   
   480. RY*(   8) C  72                  0.00002     2.08935   
   481. RY*(   9) C  72                  0.00001     2.03325   
   482. RY*(   1) H  73                  0.00160     0.50500   
   483. RY*(   1) H  74                  0.00227     0.39645   
   484. RY*(   1) H  75                  0.00197     0.44468   
   485. RY*(   1) C  76                  0.00445     0.83999   
   486. RY*(   2) C  76                  0.00352     0.82345   
   487. RY*(   3) C  76                  0.00168     0.83828   
   488. RY*(   4) C  76                  0.00023     0.72916   
   489. RY*(   5) C  76                  0.00005     1.92520   
   490. RY*(   6) C  76                  0.00002     2.13173   
   491. RY*(   7) C  76                  0.00002     1.90274   
   492. RY*(   8) C  76                  0.00001     2.00368   
   493. RY*(   9) C  76                  0.00001     1.99847   
   494. RY*(   1) H  77                  0.00154     0.47131   
   495. RY*(   1) H  78                  0.00214     0.39584   
   496. RY*(   1) H  79                  0.00193     0.40540   
   497. RY*(   1) C  80                  0.00531     0.80596   
   498. RY*(   2) C  80                  0.00392     0.80435   
   499. RY*(   3) C  80                  0.00170     0.86788   
   500. RY*(   4) C  80                  0.00023     0.70238   
   501. RY*(   5) C  80                  0.00006     1.88887   
   502. RY*(   6) C  80                  0.00002     1.89620   
   503. RY*(   7) C  80                  0.00001     2.05429   
   504. RY*(   8) C  80                  0.00002     2.10928   
   505. RY*(   9) C  80                  0.00002     2.13348   
   506. RY*(   1) H  81                  0.00203     0.42391   
   507. RY*(   1) H  82                  0.00188     0.39292   
   508. RY*(   1) H  83                  0.00137     0.44438   
   509. RY*(   1) C  84                  0.00401     0.86887   
   510. RY*(   2) C  84                  0.00390     0.84445   
   511. RY*(   3) C  84                  0.00203     0.79622   
   512. RY*(   4) C  84                  0.00026     0.82226   
   513. RY*(   5) C  84                  0.00007     1.92395   
   514. RY*(   6) C  84                  0.00002     1.92945   
   515. RY*(   7) C  84                  0.00003     2.00004   
   516. RY*(   8) C  84                  0.00003     2.14691   
   517. RY*(   9) C  84                  0.00001     1.91630   
   518. RY*(   1) H  85                  0.00263     0.39808   
   519. RY*(   1) H  86                  0.00144     0.47757   
   520. RY*(   1) H  87                  0.00134     0.49628   
   533. BD*(   1) C  12 - C  13          0.04416     0.50851   
   534. BD*(   2) C  12 - C  13          0.47785     0.04201  542(v),528(r),154(v),533(g)
                                                    152(r),149(r),547(v),522(r)
                                                    215(g),151(r),148(r),545(v)
                                                    554(r),540(v),226(g),546(v)
                                                    211(r),209(r),212(r),144(r)
                                                    150(r)
   535. BD*(   1) C  12 - C  16          0.01286     0.54683   
   536. BD*(   1) C  12 - H  17          0.01687     0.48647   
   537. BD*(   1) C  13 - C  14          0.05190     0.50324   
   538. BD*(   1) C  13 - C  20          0.03461     0.45559   
   539. BD*(   1) C  14 - C  15          0.04481     0.50533   
   540. BD*(   1) C  14 - P  22          0.03024     0.27114   
   541. BD*(   1) C  15 - C  16          0.03285     0.52843   
   542. BD*(   2) C  15 - C  16          0.45284     0.04468  534(v),522(r),154(v),541(g)
                                                    149(r),151(r),152(r),241(g)
                                                    251(g),249(g),242(g),540(v)
                                                    250(g),148(r),528(r),212(r)
                                                    211(r),209(r),166(r)
   543. BD*(   1) C  15 - H  18          0.01833     0.50051   
   544. BD*(   1) C  16 - H  19          0.01652     0.48822   
   545. BD*(   1) C  20 - H  21          0.02116     0.46283   
   546. BD*(   1) C  20 - C  23          0.02152     0.41177   
   547. BD*(   1) C  20 - P  27          0.03920     0.22410   
   548. BD*(   1) P  22 - C  28          0.03750     0.23212   
   549. BD*(   1) P  22 - C  45          0.04117     0.24266   
   550. BD*(   1) C  23 - H  24          0.00868     0.47610   
   551. BD*(   1) C  23 - H  25          0.01305     0.47573   
   552. BD*(   1) C  23 - H  26          0.00968     0.46321   
   553. BD*(   1) P  27 - C  62          0.04714     0.21908   
   554. BD*(   1) P  27 - C  63          0.04531     0.21649   
   555. BD*(   1) C  28 - C  29          0.03062     0.42066   
   556. BD*(   1) C  28 - C  30          0.02476     0.42197   
   557. BD*(   1) C  28 - H  31          0.02212     0.47263   
   558. BD*(   1) C  29 - C  32          0.02042     0.42945   
   559. BD*(   1) C  29 - H  33          0.02042     0.46709   
   560. BD*(   1) C  29 - H  34          0.01487     0.48950   
   561. BD*(   1) C  30 - C  35          0.01783     0.43427   
   562. BD*(   1) C  30 - H  36          0.01452     0.48712   
   563. BD*(   1) C  30 - H  37          0.01880     0.47088   
   564. BD*(   1) C  32 - C  38          0.01731     0.43411   
   565. BD*(   1) C  32 - H  39          0.01366     0.48052   
   566. BD*(   1) C  32 - H  40          0.01842     0.46478   
   567. BD*(   1) C  35 - C  38          0.01762     0.43375   
   568. BD*(   1) C  35 - H  41          0.01329     0.48277   
   569. BD*(   1) C  35 - H  42          0.01881     0.46804   
   570. BD*(   1) C  38 - H  43          0.01866     0.46492   
   571. BD*(   1) C  38 - H  44          0.01356     0.48235   
   572. BD*(   1) C  45 - C  46          0.02267     0.41681   
   573. BD*(   1) C  45 - C  47          0.03074     0.42127   
   574. BD*(   1) C  45 - H  48          0.02329     0.46107   
   575. BD*(   1) C  46 - C  49          0.01768     0.42801   
   576. BD*(   1) C  46 - H  50          0.01946     0.47118   
   577. BD*(   1) C  46 - H  51          0.01440     0.49558   
   578. BD*(   1) C  47 - C  52          0.02119     0.43507   
   579. BD*(   1) C  47 - H  53          0.02196     0.53195   
   580. BD*(   1) C  47 - H  54          0.01937     0.47331   
   581. BD*(   1) C  49 - C  55          0.01782     0.43431   
   582. BD*(   1) C  49 - H  56          0.01312     0.48097   
   583. BD*(   1) C  49 - H  57          0.01860     0.46339   
   584. BD*(   1) C  52 - C  55          0.01758     0.43442   
   585. BD*(   1) C  52 - H  58          0.01397     0.47928   
   586. BD*(   1) C  52 - H  59          0.01930     0.46407   
   587. BD*(   1) C  55 - H  60          0.01863     0.46458   
   588. BD*(   1) C  55 - H  61          0.01363     0.48170   
   589. BD*(   1) C  62 - C  64          0.02322     0.41761   
   590. BD*(   1) C  62 - C  68          0.02978     0.41691   
   591. BD*(   1) C  62 - C  72          0.02217     0.41249   
   592. BD*(   1) C  63 - C  76          0.02033     0.39997   
   593. BD*(   1) C  63 - C  80          0.02152     0.39765   
   594. BD*(   1) C  63 - C  84          0.02907     0.40822   
   595. BD*(   1) C  64 - H  65          0.01220     0.46344   
   596. BD*(   1) C  64 - H  66          0.00790     0.49606   
   597. BD*(   1) C  64 - H  67          0.00895     0.48597   
   598. BD*(   1) C  68 - H  69          0.00822     0.48735   
   599. BD*(   1) C  68 - H  70          0.01396     0.46055   
   600. BD*(   1) C  68 - H  71          0.00802     0.48131   
   601. BD*(   1) C  72 - H  73          0.00888     0.47787   
   602. BD*(   1) C  72 - H  74          0.01126     0.46283   
   603. BD*(   1) C  72 - H  75          0.00867     0.46953   
   604. BD*(   1) C  76 - H  77          0.00842     0.47392   
   605. BD*(   1) C  76 - H  78          0.01094     0.46240   
   606. BD*(   1) C  76 - H  79          0.00848     0.47313   
   607. BD*(   1) C  80 - H  81          0.00884     0.48826   
   608. BD*(   1) C  80 - H  82          0.00934     0.46630   
   609. BD*(   1) C  80 - H  83          0.00653     0.47049   
   610. BD*(   1) C  84 - H  85          0.01342     0.45866   
   611. BD*(   1) C  84 - H  86          0.00941     0.48648   
   612. BD*(   1) C  84 - H  87          0.00843     0.47143   
       -------------------------------
              Total Lewis  236.07236  ( 98.7595%)
        Valence non-Lewis    2.47524  (  1.0355%)
        Rydberg non-Lewis    0.49000  (  0.2050%)
       -------------------------------
            Total unit  3  239.03760  (100.0000%)
           Charge unit  3   -0.03760


 NATURAL LOCALIZED MOLECULAR ORBITAL (NLMO) ANALYSIS:

 Highest occupied NBOs are not at the beginning of the NBO list;
 The NLMO program is not currently set up to handle this.
 Leave Link  607 at Sat Aug 12 04:39:37 2023, MaxMem=  4026531840 cpu:              97.6 elap:               3.3
 (Enter /sw/arch/Centos8/EB_production/2021/software/Gaussian/g16.c01/l9999.exe)
 Unable to Open any file for archive entry.
 1\1\GINC-TCN363\SP\RPBE1PBE\def2SVPP\C32H52Fe1P2\ADARSH\12-Aug-2023\0\
 \#p pop=nbo NMR pbe1pbe/def2svpp empiricaldispersion=gd3bj integral=gr
 id=ultrafinegrid scf=(xqc,maxconventionalcycles=90) nosymm\\Cisa\\0,1\
 C,0,-4.80397,-0.44409,-1.1805\C,0,-5.30954,0.8108,-0.73824\C,0,-4.5724
 8,1.83852,-1.3928\C,0,-3.60746,1.21889,-2.23821\C,0,-3.75147,-0.19014,
 -2.10731\H,0,-5.16151,-1.42317,-0.86182\H,0,-6.10773,0.95948,-0.01081\
 H,0,-4.71339,2.91085,-1.25347\H,0,-2.88301,1.72991,-2.87317\H,0,-3.156
 51,-0.9409,-2.62638\Fe,0,-3.31871,0.66353,-0.28339\C,0,-2.54803,1.9806
 1,1.06131\C,0,-1.50541,1.3859,0.28334\C,0,-1.55474,-0.04229,0.5109\C,0
 ,-2.65872,-0.28319,1.40375\C,0,-3.254,0.95587,1.74462\H,0,-2.80536,3.0
 3779,1.08715\H,0,-2.99476,-1.25342,1.76168\H,0,-4.12652,1.09389,2.3828
 8\C,0,-0.59527,2.15377,-0.63832\H,0,-0.54754,1.5921,-1.58803\P,0,-0.21
 551,-1.22348,0.13882\C,0,-1.19679,3.52647,-0.944\H,0,-0.72445,4.0036,-
 1.81124\H,0,-2.26149,3.3933,-1.1904\H,0,-1.13459,4.2212,-0.09464\P,0,1
 .21142,2.04451,-0.09086\C,0,0.10974,-1.92517,1.86016\C,0,-0.80958,-3.0
 307,2.39142\C,0,1.57003,-2.31747,2.10828\H,0,-0.08956,-1.03192,2.47535
 \C,0,-0.55749,-3.26148,3.8824\H,0,-0.62448,-3.97041,1.84176\H,0,-1.869
 47,-2.78145,2.24453\C,0,1.83102,-2.53243,3.59652\H,0,2.25092,-1.54834,
 1.69853\H,0,1.79458,-3.25849,1.57306\C,0,0.90108,-3.59449,4.17191\H,0,
 -1.21707,-4.0687,4.24563\H,0,-0.84487,-2.34837,4.43839\H,0,2.88654,-2.
 81599,3.75297\H,0,1.67919,-1.57528,4.13206\H,0,1.14773,-4.57515,3.7213
 6\H,0,1.0623,-3.70155,5.25838\C,0,-0.98187,-2.5498,-0.94915\C,0,-0.155
 17,-3.83359,-1.10772\C,0,-2.42091,-2.93231,-0.58722\H,0,-1.00993,-2.03
 902,-1.93352\C,0,-0.77015,-4.75751,-2.1605\H,0,-0.11483,-4.36225,-0.13
 843\H,0,0.88051,-3.62649,-1.39571\C,0,-3.04112,-3.82689,-1.65784\H,0,-
 3.02501,-2.02847,-0.44539\H,0,-2.42481,-3.48277,0.36766\C,0,-2.22342,-
 5.09667,-1.8567\H,0,-0.16453,-5.67729,-2.23685\H,0,-0.70859,-4.26138,-
 3.14887\H,0,-4.07995,-4.07394,-1.37617\H,0,-3.10082,-3.27449,-2.6157\H
 ,0,-2.27183,-5.70839,-0.93557\H,0,-2.65123,-5.71391,-2.66529\C,0,1.327
 16,2.54545,1.73655\C,0,2.12942,3.34894,-1.14781\C,0,0.90424,1.34465,2.
 58289\H,0,1.01652,1.60158,3.6522\H,0,-0.14837,1.07117,2.41617\H,0,1.54
 38,0.47101,2.37695\C,0,0.43617,3.7336,2.10527\H,0,-0.63051,3.48559,1.9
 9789\H,0,0.6066,3.98393,3.16858\H,0,0.65096,4.63752,1.51761\C,0,2.7843
 8,2.8604,2.08558\H,0,3.13409,3.80426,1.64351\H,0,2.8675,2.9634,3.1825\
 H,0,3.46928,2.05136,1.77824\C,0,1.75449,3.02552,-2.60642\H,0,0.7419,3.
 3751,-2.85713\H,0,2.45117,3.54237,-3.2902\H,0,1.79097,1.94591,-2.82982
 \C,0,3.6565,3.22738,-0.9358\H,0,3.99001,2.25065,-0.5698\H,0,4.18304,3.
 43123,-1.88476\H,0,4.01424,3.97397,-0.21216\C,0,1.79492,4.82172,-0.871
 43\H,0,2.36972,5.43648,-1.58878\H,0,0.73697,5.07962,-0.99704\H,0,2.110
 37,5.13357,0.1359\\Version=ES64L-G16RevC.01\HF=-3193.9206558\RMSD=5.04
 8e-09\Dipole=-0.5881817,0.2652647,0.2585865\Quadrupole=-1.3428637,3.22
 41695,-1.8813058,-0.4961849,-3.6984937,-1.0682049\PG=C01 [X(C32H52Fe1P
 2)]\\@
 The archive entry for this job was punched.


 WERE I TO AWAIT PERFECTION, MY BOOK WOULD NEVER BE FINISHED.
                                    -- HISTORY OF CHINESE WRITING

                                       TAI T'UNG, 13TH CENTURY
 Job cpu time:       0 days  2 hours 32 minutes 36.8 seconds.
 Elapsed time:       0 days  0 hours  7 minutes 29.8 seconds.
 File lengths (MBytes):  RWF=    448 Int=      0 D2E=      0 Chk=     36 Scr=     32
 Normal termination of Gaussian 16 at Sat Aug 12 04:39:37 2023.
