 Entering Gaussian System, Link 0=g16
 Input=free_ligand_L20_SP.inp
 Output=free_ligand_L20_SP.log
 Initial command:
 /sw/arch/Centos8/EB_production/2021/software/Gaussian/g16.c01/l1.exe "/scratch-local/adarsh.3296420/Gau-1830540.inp" -scrdir="/scratch-local/adarsh.3296420/"
 Entering Link 1 = /sw/arch/Centos8/EB_production/2021/software/Gaussian/g16.c01/l1.exe PID=   1830541.
  
 Copyright (c) 1988-2019, Gaussian, Inc.  All Rights Reserved.
  
 This is part of the Gaussian(R) 16 program.  It is based on
 the Gaussian(R) 09 system (copyright 2009, Gaussian, Inc.),
 the Gaussian(R) 03 system (copyright 2003, Gaussian, Inc.),
 the Gaussian(R) 98 system (copyright 1998, Gaussian, Inc.),
 the Gaussian(R) 94 system (copyright 1995, Gaussian, Inc.),
 the Gaussian 92(TM) system (copyright 1992, Gaussian, Inc.),
 the Gaussian 90(TM) system (copyright 1990, Gaussian, Inc.),
 the Gaussian 88(TM) system (copyright 1988, Gaussian, Inc.),
 the Gaussian 86(TM) system (copyright 1986, Carnegie Mellon
 University), and the Gaussian 82(TM) system (copyright 1983,
 Carnegie Mellon University). Gaussian is a federally registered
 trademark of Gaussian, Inc.
  
 This software contains proprietary and confidential information,
 including trade secrets, belonging to Gaussian, Inc.
  
 This software is provided under written license and may be
 used, copied, transmitted, or stored only in accord with that
 written license.
  
 The following legend is applicable only to US Government
 contracts under FAR:
  
                    RESTRICTED RIGHTS LEGEND
  
 Use, reproduction and disclosure by the US Government is
 subject to restrictions as set forth in subparagraphs (a)
 and (c) of the Commercial Computer Software - Restricted
 Rights clause in FAR 52.227-19.
  
 Gaussian, Inc.
 340 Quinnipiac St., Bldg. 40, Wallingford CT 06492
  
  
 ---------------------------------------------------------------
 Warning -- This program may not be used in any manner that
 competes with the business of Gaussian, Inc. or will provide
 assistance to any competitor of Gaussian, Inc.  The licensee
 of this program is prohibited from giving any competitor of
 Gaussian, Inc. access to this program.  By using this program,
 the user acknowledges that Gaussian, Inc. is engaged in the
 business of creating and licensing software in the field of
 computational chemistry and represents and warrants to the
 licensee that it is not a competitor of Gaussian, Inc. and that
 it will not use this program in any manner prohibited above.
 ---------------------------------------------------------------
  

 Cite this work as:
 Gaussian 16, Revision C.01,
 M. J. Frisch, G. W. Trucks, H. B. Schlegel, G. E. Scuseria, 
 M. A. Robb, J. R. Cheeseman, G. Scalmani, V. Barone, 
 G. A. Petersson, H. Nakatsuji, X. Li, M. Caricato, A. V. Marenich, 
 J. Bloino, B. G. Janesko, R. Gomperts, B. Mennucci, H. P. Hratchian, 
 J. V. Ortiz, A. F. Izmaylov, J. L. Sonnenberg, D. Williams-Young, 
 F. Ding, F. Lipparini, F. Egidi, J. Goings, B. Peng, A. Petrone, 
 T. Henderson, D. Ranasinghe, V. G. Zakrzewski, J. Gao, N. Rega, 
 G. Zheng, W. Liang, M. Hada, M. Ehara, K. Toyota, R. Fukuda, 
 J. Hasegawa, M. Ishida, T. Nakajima, Y. Honda, O. Kitao, H. Nakai, 
 T. Vreven, K. Throssell, J. A. Montgomery, Jr., J. E. Peralta, 
 F. Ogliaro, M. J. Bearpark, J. J. Heyd, E. N. Brothers, K. N. Kudin, 
 V. N. Staroverov, T. A. Keith, R. Kobayashi, J. Normand, 
 K. Raghavachari, A. P. Rendell, J. C. Burant, S. S. Iyengar, 
 J. Tomasi, M. Cossi, J. M. Millam, M. Klene, C. Adamo, R. Cammi, 
 J. W. Ochterski, R. L. Martin, K. Morokuma, O. Farkas, 
 J. B. Foresman, and D. J. Fox, Gaussian, Inc., Wallingford CT, 2019.
 
 ******************************************
 Gaussian 16:  ES64L-G16RevC.01  3-Jul-2019
                12-Aug-2023 
 ******************************************
 %nprocshared=32
 Will use up to   32 processors via shared memory.
 %mem=30GB
 %chk=free_ligand_L20.chk
 ----------------------------------------------------------------------
 #p pop=nbo NMR pbe1pbe/def2svpp empiricaldispersion=gd3bj integral=gri
 d=ultrafinegrid scf=(xqc,maxconventionalcycles=90) nosymm
 ----------------------------------------------------------------------
 1/38=1,172=1/1;
 2/12=2,15=1,17=6,18=5,40=1/2;
 3/5=43,7=202,11=2,25=1,30=1,74=-13,75=-5,124=41/1,2,3,8;
 4//1;
 5/5=2,8=3,13=1,38=5,85=90/2,8;
 8/6=1,10=90,11=11/1;
 10/13=100,31=1,45=16/2;
 6/7=2,8=2,9=2,10=2,28=1,40=1,64=1/1,7;
 99/9=1/99;
 Leave Link    1 at Sat Aug 12 03:28:17 2023, MaxMem=  4026531840 cpu:              27.0 elap:               0.9
 (Enter /sw/arch/Centos8/EB_production/2021/software/Gaussian/g16.c01/l101.exe)
 ----
 Cisa
 ----
 Symbolic Z-matrix:
 Charge =  0 Multiplicity = 1
 P                     12.36244   2.47947   8.27348 
 P                     12.57234   5.17037   6.00323 
 Fe                    13.53888   1.99345   5.0469 
 C                     14.75648   3.58105   4.67284 
 C                     12.04823   0.86029   5.82085 
 C                     13.37878   4.01274   4.82965 
 C                     12.86643   1.41864   6.87857 
 C                     14.20929   0.96114   6.68774 
 C                     12.60759   3.32542   3.83181 
 C                     14.23995   0.13392   5.5381 
 C                     13.47063   2.50139   3.06972 
 C                     12.92203   0.06336   5.01425 
 C                     14.78262   2.65919   3.57961 
 H                     11.53044   3.37463   3.70545 
 H                     13.15949   1.82998   2.26967 
 H                     15.66662   2.12687   3.2348 
 H                     15.06351   1.20703   7.31228 
 H                     15.12932  -0.33295   5.11518 
 H                     12.64399  -0.46307   4.10483 
 C                     15.9973   4.07434   5.37581 
 C                     17.11728   3.03948   5.3549 
 C                     17.88234   2.82153   4.20149 
 C                     17.4416   2.3177    6.50595 
 C                     18.9092   1.87937   4.19145 
 H                     17.68007   3.39977   3.29604 
 C                     18.46482   1.37005   6.50239 
 H                     16.89187   2.50519   7.43246 
 C                     19.19835   1.14171   5.33986 
 H                     19.4934   1.72448   3.27958 
 H                     18.69532   0.81541   7.41688 
 H                     20.0048   0.40291   5.33165 
 C                     10.55644   1.04015   5.64767 
 C                     10.08567   1.09095   4.19756 
 C                     10.21708   0.01383   3.30985 
 C                     9.39516   2.22294   3.75021 
 C                     9.71956   0.0906    2.00916 
 H                     10.69991  -0.91161   3.62835 
 C                     8.89763   2.30733   2.45107 
 H                     9.24295   3.06054   4.43761 
 C                     9.06655   1.24153   1.56942 
 H                     9.83844  -0.76273   1.33488 
 H                     8.36912   3.21043   2.13174 
 H                     8.67745   1.2991    0.54883 
 H                     15.73372   4.21552   6.44577 
 N                     16.39435   5.38041   4.88073 
 C                     16.17455   5.76709   3.51455 
 H                     15.19172   5.41451   3.16612 
 H                     16.16816   6.87149   3.45759 
 H                     16.94615   5.4038    2.79885 
 C                     17.6      5.89672   5.46319 
 H                     18.52993   5.43453   5.06584 
 H                     17.6582   6.98473   5.28309 
 H                     17.5936   5.72929   6.55662 
 H                     10.32063   2.03582   6.07117 
 N                     9.80384   0.09471   6.46475 
 C                     8.38599   0.34789   6.45059 
 H                     7.89626   0.08622   5.48556 
 H                     7.90337  -0.23694   7.2516 
 H                     8.1923    1.41645   6.64948 
 C                     10.11374  -1.306     6.35428 
 H                     9.6833   -1.83488   7.22365 
 H                     9.70524  -1.79256   5.43997 
 H                     11.20401  -1.46367   6.37797 
 C                     10.89827   5.35443   5.27955 
 C                     8.30664   5.72797   4.27144 
 C                     9.41481   5.90329   3.43981 
 C                     10.70163   5.71717   3.93792 
 C                     9.7795    5.1676    6.10023 
 C                     8.49015   5.35422   5.60138 
 H                     7.29713   5.87627   3.87742 
 H                     9.27613   6.18724   2.39274 
 H                     11.55994   5.84884   3.27296 
 H                     9.93524   4.87101   7.14409 
 H                     7.6262    5.20262   6.25458 
 C                     13.36538   6.80391   5.73539 
 C                     14.6187   9.31166   5.57863 
 C                     13.36131   9.12092   5.01091 
 C                     12.73445   7.87692   5.09491 
 C                     14.62489   7.01142   6.31793 
 C                     15.2439   8.25654   6.24371 
 H                     15.10583   10.28929   5.52063 
 H                     12.85324   9.94733   4.5061 
 H                     11.73626   7.76075   4.66896 
 H                     15.09758   6.2089    6.88881 
 H                     16.21727   8.4068    6.71856 
 C                     13.74485   2.2803    9.46686 
 C                     15.87532   2.32364   11.29529 
 C                     15.97908   3.01405   10.08551 
 C                     14.91818   2.99961   9.18578 
 C                     13.64185   1.60817   10.68797 
 C                     14.70505   1.62997   11.59442 
 H                     16.70379   2.33793   12.00911 
 H                     16.88683   3.5767    9.84814 
 H                     14.98445   3.57706   8.25794 
 H                     12.72459   1.07829   10.95353 
 H                     14.61036   1.0997    12.54636 
 C                     10.95929   1.55882   8.97803 
 C                     8.81912   0.12586   10.06511 
 C                     10.05139  -0.50066   9.86979 
 C                     11.11213   0.20676   9.31429 
 C                     9.7123    2.16758   9.13879 
 C                     8.64585   1.45476   9.68494 
 H                     7.98502  -0.43174   10.501 
 H                     10.18183  -1.55213   10.14142 
 H                     12.06404  -0.3       9.12824 
 H                     9.56902   3.20209   8.81413 
 H                     7.67215   1.93798   9.80591 
 
 ITRead=  0  0  0  0  0  0  0  0  0  0  0  0  0  0  0  0  0  0  0  0
 ITRead=  0  0  0  0  0  0  0  0  0  0  0  0  0  0  0  0  0  0  0  0
 ITRead=  0  0  0  0  0  0  0  0  0  0  0  0  0  0  0  0  0  0  0  0
 ITRead=  0  0  0  0  0  0  0  0  0  0  0  0  0  0  0  0  0  0  0  0
 ITRead=  0  0  0  0  0  0  0  0  0  0  0  0  0  0  0  0  0  0  0  0
 ITRead=  0  0  0  0  0  0  0
 MicOpt= -1 -1 -1 -1 -1 -1 -1 -1 -1 -1 -1 -1 -1 -1 -1 -1 -1 -1 -1 -1
 MicOpt= -1 -1 -1 -1 -1 -1 -1 -1 -1 -1 -1 -1 -1 -1 -1 -1 -1 -1 -1 -1
 MicOpt= -1 -1 -1 -1 -1 -1 -1 -1 -1 -1 -1 -1 -1 -1 -1 -1 -1 -1 -1 -1
 MicOpt= -1 -1 -1 -1 -1 -1 -1 -1 -1 -1 -1 -1 -1 -1 -1 -1 -1 -1 -1 -1
 MicOpt= -1 -1 -1 -1 -1 -1 -1 -1 -1 -1 -1 -1 -1 -1 -1 -1 -1 -1 -1 -1
 MicOpt= -1 -1 -1 -1 -1 -1 -1
 NAtoms=    107 NQM=      107 NQMF=       0 NMMI=      0 NMMIF=      0
                NMic=       0 NMicF=      0.
                    Isotopes and Nuclear Properties:
 (Nuclear quadrupole moments (NQMom) in fm**2, nuclear magnetic moments (NMagM)
  in nuclear magnetons)

  Atom         1           2           3           4           5           6           7           8           9          10
 IAtWgt=          31          31          56          12          12          12          12          12          12          12
 AtmWgt=  30.9737634  30.9737634  55.9349393  12.0000000  12.0000000  12.0000000  12.0000000  12.0000000  12.0000000  12.0000000
 NucSpn=           1           1           0           0           0           0           0           0           0           0
 AtZEff=  -0.0000000  -0.0000000  -0.0000000  -0.0000000  -0.0000000  -0.0000000  -0.0000000  -0.0000000  -0.0000000  -0.0000000
 NQMom=    0.0000000   0.0000000   0.0000000   0.0000000   0.0000000   0.0000000   0.0000000   0.0000000   0.0000000   0.0000000
 NMagM=    1.1316000   1.1316000   0.0000000   0.0000000   0.0000000   0.0000000   0.0000000   0.0000000   0.0000000   0.0000000
 AtZNuc=  15.0000000  15.0000000  26.0000000   6.0000000   6.0000000   6.0000000   6.0000000   6.0000000   6.0000000   6.0000000

  Atom        11          12          13          14          15          16          17          18          19          20
 IAtWgt=          12          12          12           1           1           1           1           1           1          12
 AtmWgt=  12.0000000  12.0000000  12.0000000   1.0078250   1.0078250   1.0078250   1.0078250   1.0078250   1.0078250  12.0000000
 NucSpn=           0           0           0           1           1           1           1           1           1           0
 AtZEff=  -0.0000000  -0.0000000  -0.0000000  -0.0000000  -0.0000000  -0.0000000  -0.0000000  -0.0000000  -0.0000000  -0.0000000
 NQMom=    0.0000000   0.0000000   0.0000000   0.0000000   0.0000000   0.0000000   0.0000000   0.0000000   0.0000000   0.0000000
 NMagM=    0.0000000   0.0000000   0.0000000   2.7928460   2.7928460   2.7928460   2.7928460   2.7928460   2.7928460   0.0000000
 AtZNuc=   6.0000000   6.0000000   6.0000000   1.0000000   1.0000000   1.0000000   1.0000000   1.0000000   1.0000000   6.0000000

  Atom        21          22          23          24          25          26          27          28          29          30
 IAtWgt=          12          12          12          12           1          12           1          12           1           1
 AtmWgt=  12.0000000  12.0000000  12.0000000  12.0000000   1.0078250  12.0000000   1.0078250  12.0000000   1.0078250   1.0078250
 NucSpn=           0           0           0           0           1           0           1           0           1           1
 AtZEff=  -0.0000000  -0.0000000  -0.0000000  -0.0000000  -0.0000000  -0.0000000  -0.0000000  -0.0000000  -0.0000000  -0.0000000
 NQMom=    0.0000000   0.0000000   0.0000000   0.0000000   0.0000000   0.0000000   0.0000000   0.0000000   0.0000000   0.0000000
 NMagM=    0.0000000   0.0000000   0.0000000   0.0000000   2.7928460   0.0000000   2.7928460   0.0000000   2.7928460   2.7928460
 AtZNuc=   6.0000000   6.0000000   6.0000000   6.0000000   1.0000000   6.0000000   1.0000000   6.0000000   1.0000000   1.0000000

  Atom        31          32          33          34          35          36          37          38          39          40
 IAtWgt=           1          12          12          12          12          12           1          12           1          12
 AtmWgt=   1.0078250  12.0000000  12.0000000  12.0000000  12.0000000  12.0000000   1.0078250  12.0000000   1.0078250  12.0000000
 NucSpn=           1           0           0           0           0           0           1           0           1           0
 AtZEff=  -0.0000000  -0.0000000  -0.0000000  -0.0000000  -0.0000000  -0.0000000  -0.0000000  -0.0000000  -0.0000000  -0.0000000
 NQMom=    0.0000000   0.0000000   0.0000000   0.0000000   0.0000000   0.0000000   0.0000000   0.0000000   0.0000000   0.0000000
 NMagM=    2.7928460   0.0000000   0.0000000   0.0000000   0.0000000   0.0000000   2.7928460   0.0000000   2.7928460   0.0000000
 AtZNuc=   1.0000000   6.0000000   6.0000000   6.0000000   6.0000000   6.0000000   1.0000000   6.0000000   1.0000000   6.0000000

  Atom        41          42          43          44          45          46          47          48          49          50
 IAtWgt=           1           1           1           1          14          12           1           1           1          12
 AtmWgt=   1.0078250   1.0078250   1.0078250   1.0078250  14.0030740  12.0000000   1.0078250   1.0078250   1.0078250  12.0000000
 NucSpn=           1           1           1           1           2           0           1           1           1           0
 AtZEff=  -0.0000000  -0.0000000  -0.0000000  -0.0000000  -0.0000000  -0.0000000  -0.0000000  -0.0000000  -0.0000000  -0.0000000
 NQMom=    0.0000000   0.0000000   0.0000000   0.0000000   2.0440000   0.0000000   0.0000000   0.0000000   0.0000000   0.0000000
 NMagM=    2.7928460   2.7928460   2.7928460   2.7928460   0.4037610   0.0000000   2.7928460   2.7928460   2.7928460   0.0000000
 AtZNuc=   1.0000000   1.0000000   1.0000000   1.0000000   7.0000000   6.0000000   1.0000000   1.0000000   1.0000000   6.0000000

  Atom        51          52          53          54          55          56          57          58          59          60
 IAtWgt=           1           1           1           1          14          12           1           1           1          12
 AtmWgt=   1.0078250   1.0078250   1.0078250   1.0078250  14.0030740  12.0000000   1.0078250   1.0078250   1.0078250  12.0000000
 NucSpn=           1           1           1           1           2           0           1           1           1           0
 AtZEff=  -0.0000000  -0.0000000  -0.0000000  -0.0000000  -0.0000000  -0.0000000  -0.0000000  -0.0000000  -0.0000000  -0.0000000
 NQMom=    0.0000000   0.0000000   0.0000000   0.0000000   2.0440000   0.0000000   0.0000000   0.0000000   0.0000000   0.0000000
 NMagM=    2.7928460   2.7928460   2.7928460   2.7928460   0.4037610   0.0000000   2.7928460   2.7928460   2.7928460   0.0000000
 AtZNuc=   1.0000000   1.0000000   1.0000000   1.0000000   7.0000000   6.0000000   1.0000000   1.0000000   1.0000000   6.0000000

  Atom        61          62          63          64          65          66          67          68          69          70
 IAtWgt=           1           1           1          12          12          12          12          12          12           1
 AtmWgt=   1.0078250   1.0078250   1.0078250  12.0000000  12.0000000  12.0000000  12.0000000  12.0000000  12.0000000   1.0078250
 NucSpn=           1           1           1           0           0           0           0           0           0           1
 AtZEff=  -0.0000000  -0.0000000  -0.0000000  -0.0000000  -0.0000000  -0.0000000  -0.0000000  -0.0000000  -0.0000000  -0.0000000
 NQMom=    0.0000000   0.0000000   0.0000000   0.0000000   0.0000000   0.0000000   0.0000000   0.0000000   0.0000000   0.0000000
 NMagM=    2.7928460   2.7928460   2.7928460   0.0000000   0.0000000   0.0000000   0.0000000   0.0000000   0.0000000   2.7928460
 AtZNuc=   1.0000000   1.0000000   1.0000000   6.0000000   6.0000000   6.0000000   6.0000000   6.0000000   6.0000000   1.0000000

  Atom        71          72          73          74          75          76          77          78          79          80
 IAtWgt=           1           1           1           1          12          12          12          12          12          12
 AtmWgt=   1.0078250   1.0078250   1.0078250   1.0078250  12.0000000  12.0000000  12.0000000  12.0000000  12.0000000  12.0000000
 NucSpn=           1           1           1           1           0           0           0           0           0           0
 AtZEff=  -0.0000000  -0.0000000  -0.0000000  -0.0000000  -0.0000000  -0.0000000  -0.0000000  -0.0000000  -0.0000000  -0.0000000
 NQMom=    0.0000000   0.0000000   0.0000000   0.0000000   0.0000000   0.0000000   0.0000000   0.0000000   0.0000000   0.0000000
 NMagM=    2.7928460   2.7928460   2.7928460   2.7928460   0.0000000   0.0000000   0.0000000   0.0000000   0.0000000   0.0000000
 AtZNuc=   1.0000000   1.0000000   1.0000000   1.0000000   6.0000000   6.0000000   6.0000000   6.0000000   6.0000000   6.0000000

  Atom        81          82          83          84          85          86          87          88          89          90
 IAtWgt=           1           1           1           1           1          12          12          12          12          12
 AtmWgt=   1.0078250   1.0078250   1.0078250   1.0078250   1.0078250  12.0000000  12.0000000  12.0000000  12.0000000  12.0000000
 NucSpn=           1           1           1           1           1           0           0           0           0           0
 AtZEff=  -0.0000000  -0.0000000  -0.0000000  -0.0000000  -0.0000000  -0.0000000  -0.0000000  -0.0000000  -0.0000000  -0.0000000
 NQMom=    0.0000000   0.0000000   0.0000000   0.0000000   0.0000000   0.0000000   0.0000000   0.0000000   0.0000000   0.0000000
 NMagM=    2.7928460   2.7928460   2.7928460   2.7928460   2.7928460   0.0000000   0.0000000   0.0000000   0.0000000   0.0000000
 AtZNuc=   1.0000000   1.0000000   1.0000000   1.0000000   1.0000000   6.0000000   6.0000000   6.0000000   6.0000000   6.0000000

  Atom        91          92          93          94          95          96          97          98          99         100
 IAtWgt=          12           1           1           1           1           1          12          12          12          12
 AtmWgt=  12.0000000   1.0078250   1.0078250   1.0078250   1.0078250   1.0078250  12.0000000  12.0000000  12.0000000  12.0000000
 NucSpn=           0           1           1           1           1           1           0           0           0           0
 AtZEff=  -0.0000000  -0.0000000  -0.0000000  -0.0000000  -0.0000000  -0.0000000  -0.0000000  -0.0000000  -0.0000000  -0.0000000
 NQMom=    0.0000000   0.0000000   0.0000000   0.0000000   0.0000000   0.0000000   0.0000000   0.0000000   0.0000000   0.0000000
 NMagM=    0.0000000   2.7928460   2.7928460   2.7928460   2.7928460   2.7928460   0.0000000   0.0000000   0.0000000   0.0000000
 AtZNuc=   6.0000000   1.0000000   1.0000000   1.0000000   1.0000000   1.0000000   6.0000000   6.0000000   6.0000000   6.0000000

  Atom       101         102         103         104         105         106         107
 IAtWgt=          12          12           1           1           1           1           1
 AtmWgt=  12.0000000  12.0000000   1.0078250   1.0078250   1.0078250   1.0078250   1.0078250
 NucSpn=           0           0           1           1           1           1           1
 AtZEff=  -0.0000000  -0.0000000  -0.0000000  -0.0000000  -0.0000000  -0.0000000  -0.0000000
 NQMom=    0.0000000   0.0000000   0.0000000   0.0000000   0.0000000   0.0000000   0.0000000
 NMagM=    0.0000000   0.0000000   2.7928460   2.7928460   2.7928460   2.7928460   2.7928460
 AtZNuc=   6.0000000   6.0000000   1.0000000   1.0000000   1.0000000   1.0000000   1.0000000
 Leave Link  101 at Sat Aug 12 03:28:18 2023, MaxMem=  4026531840 cpu:               6.6 elap:               0.2
 (Enter /sw/arch/Centos8/EB_production/2021/software/Gaussian/g16.c01/l202.exe)
 Symmetry turned off by external request.
 Stoichiometry    C52H50FeN2P2
 Framework group  C1[X(C52H50FeN2P2)]
 Deg. of freedom   315
 Full point group                 C1      NOp   1
                          Input orientation:                          
 ---------------------------------------------------------------------
 Center     Atomic      Atomic             Coordinates (Angstroms)
 Number     Number       Type             X           Y           Z
 ---------------------------------------------------------------------
      1         15           0       12.362440    2.479470    8.273480
      2         15           0       12.572340    5.170370    6.003230
      3         26           0       13.538880    1.993450    5.046900
      4          6           0       14.756480    3.581050    4.672840
      5          6           0       12.048230    0.860290    5.820850
      6          6           0       13.378780    4.012740    4.829650
      7          6           0       12.866430    1.418640    6.878570
      8          6           0       14.209290    0.961140    6.687740
      9          6           0       12.607590    3.325420    3.831810
     10          6           0       14.239950    0.133920    5.538100
     11          6           0       13.470630    2.501390    3.069720
     12          6           0       12.922030    0.063360    5.014250
     13          6           0       14.782620    2.659190    3.579610
     14          1           0       11.530440    3.374630    3.705450
     15          1           0       13.159490    1.829980    2.269670
     16          1           0       15.666620    2.126870    3.234800
     17          1           0       15.063510    1.207030    7.312280
     18          1           0       15.129320   -0.332950    5.115180
     19          1           0       12.643990   -0.463070    4.104830
     20          6           0       15.997300    4.074340    5.375810
     21          6           0       17.117280    3.039480    5.354900
     22          6           0       17.882340    2.821530    4.201490
     23          6           0       17.441600    2.317700    6.505950
     24          6           0       18.909200    1.879370    4.191450
     25          1           0       17.680070    3.399770    3.296040
     26          6           0       18.464820    1.370050    6.502390
     27          1           0       16.891870    2.505190    7.432460
     28          6           0       19.198350    1.141710    5.339860
     29          1           0       19.493400    1.724480    3.279580
     30          1           0       18.695320    0.815410    7.416880
     31          1           0       20.004800    0.402910    5.331650
     32          6           0       10.556440    1.040150    5.647670
     33          6           0       10.085670    1.090950    4.197560
     34          6           0       10.217080    0.013830    3.309850
     35          6           0        9.395160    2.222940    3.750210
     36          6           0        9.719560    0.090600    2.009160
     37          1           0       10.699910   -0.911610    3.628350
     38          6           0        8.897630    2.307330    2.451070
     39          1           0        9.242950    3.060540    4.437610
     40          6           0        9.066550    1.241530    1.569420
     41          1           0        9.838440   -0.762730    1.334880
     42          1           0        8.369120    3.210430    2.131740
     43          1           0        8.677450    1.299100    0.548830
     44          1           0       15.733720    4.215520    6.445770
     45          7           0       16.394350    5.380410    4.880730
     46          6           0       16.174550    5.767090    3.514550
     47          1           0       15.191720    5.414510    3.166120
     48          1           0       16.168160    6.871490    3.457590
     49          1           0       16.946150    5.403800    2.798850
     50          6           0       17.600000    5.896720    5.463190
     51          1           0       18.529930    5.434530    5.065840
     52          1           0       17.658200    6.984730    5.283090
     53          1           0       17.593600    5.729290    6.556620
     54          1           0       10.320630    2.035820    6.071170
     55          7           0        9.803840    0.094710    6.464750
     56          6           0        8.385990    0.347890    6.450590
     57          1           0        7.896260    0.086220    5.485560
     58          1           0        7.903370   -0.236940    7.251600
     59          1           0        8.192300    1.416450    6.649480
     60          6           0       10.113740   -1.306000    6.354280
     61          1           0        9.683300   -1.834880    7.223650
     62          1           0        9.705240   -1.792560    5.439970
     63          1           0       11.204010   -1.463670    6.377970
     64          6           0       10.898270    5.354430    5.279550
     65          6           0        8.306640    5.727970    4.271440
     66          6           0        9.414810    5.903290    3.439810
     67          6           0       10.701630    5.717170    3.937920
     68          6           0        9.779500    5.167600    6.100230
     69          6           0        8.490150    5.354220    5.601380
     70          1           0        7.297130    5.876270    3.877420
     71          1           0        9.276130    6.187240    2.392740
     72          1           0       11.559940    5.848840    3.272960
     73          1           0        9.935240    4.871010    7.144090
     74          1           0        7.626200    5.202620    6.254580
     75          6           0       13.365380    6.803910    5.735390
     76          6           0       14.618700    9.311660    5.578630
     77          6           0       13.361310    9.120920    5.010910
     78          6           0       12.734450    7.876920    5.094910
     79          6           0       14.624890    7.011420    6.317930
     80          6           0       15.243900    8.256540    6.243710
     81          1           0       15.105830   10.289290    5.520630
     82          1           0       12.853240    9.947330    4.506100
     83          1           0       11.736260    7.760750    4.668960
     84          1           0       15.097580    6.208900    6.888810
     85          1           0       16.217270    8.406800    6.718560
     86          6           0       13.744850    2.280300    9.466860
     87          6           0       15.875320    2.323640   11.295290
     88          6           0       15.979080    3.014050   10.085510
     89          6           0       14.918180    2.999610    9.185780
     90          6           0       13.641850    1.608170   10.687970
     91          6           0       14.705050    1.629970   11.594420
     92          1           0       16.703790    2.337930   12.009110
     93          1           0       16.886830    3.576700    9.848140
     94          1           0       14.984450    3.577060    8.257940
     95          1           0       12.724590    1.078290   10.953530
     96          1           0       14.610360    1.099700   12.546360
     97          6           0       10.959290    1.558820    8.978030
     98          6           0        8.819120    0.125860   10.065110
     99          6           0       10.051390   -0.500660    9.869790
    100          6           0       11.112130    0.206760    9.314290
    101          6           0        9.712300    2.167580    9.138790
    102          6           0        8.645850    1.454760    9.684940
    103          1           0        7.985020   -0.431740   10.501000
    104          1           0       10.181830   -1.552130   10.141420
    105          1           0       12.064040   -0.300000    9.128240
    106          1           0        9.569020    3.202090    8.814130
    107          1           0        7.672150    1.937980    9.805910
 ---------------------------------------------------------------------
 Rotational constants (GHZ):           0.0570410           0.0459373           0.0389379
 Leave Link  202 at Sat Aug 12 03:28:18 2023, MaxMem=  4026531840 cpu:               0.1 elap:               0.0
 (Enter /sw/arch/Centos8/EB_production/2021/software/Gaussian/g16.c01/l301.exe)
 Standard basis: def2SVPP (5D, 7F)
 Ernie: Thresh=  0.10000D-02 Tol=  0.10000D-05 Strict=F.
   916 basis functions,  1695 primitive gaussians,   974 cartesian basis functions
   216 alpha electrons      216 beta electrons
       nuclear repulsion energy     10019.4032535549 Hartrees.
 IExCor= 1009 DFT=T Ex+Corr=PBE1PBE ExCW=0 ScaHFX=  0.250000
 ScaDFX=  0.750000  0.750000  1.000000  1.000000 ScalE2=  1.000000  1.000000
 IRadAn=      5 IRanWt=     -1 IRanGd=            0 ICorTp=0 IEmpDi=141
 NAtoms=  107 NActive=  107 NUniq=  107 SFac= 1.00D+00 NAtFMM=   60 NAOKFM=T Big=T
 Integral buffers will be    131072 words long.
 Raffenetti 2 integral format.
 Two-electron integral symmetry is turned off.
 R6Disp:  Grimme-D3(BJ) Dispersion energy=       -0.1894720164 Hartrees.
 Nuclear repulsion after empirical dispersion term =    10019.2137815385 Hartrees.
 Leave Link  301 at Sat Aug 12 03:28:18 2023, MaxMem=  4026531840 cpu:               0.9 elap:               0.0
 (Enter /sw/arch/Centos8/EB_production/2021/software/Gaussian/g16.c01/l302.exe)
 NPDir=0 NMtPBC=     1 NCelOv=     1 NCel=       1 NClECP=     1 NCelD=      1
         NCelK=      1 NCelE2=     1 NClLst=     1 CellRange=     0.0.
 One-electron integrals computed using PRISM.
   1 Symmetry operations used in ECPInt.
 ECPInt:  NShTT=  101475 NPrTT=  417266 LenC2=   85621 LenP2D=  213235.
 LDataN:  DoStor=T MaxTD1= 4 Len=   56
 NBasis=   916 RedAO= T EigKep=  2.46D-04  NBF=   916
 NBsUse=   916 1.00D-06 EigRej= -1.00D+00 NBFU=   916
 Precomputing XC quadrature grid using
 IXCGrd= 4 IRadAn=           5 IRanWt=          -1 IRanGd=           0 AccXCQ= 0.00D+00.
 Generated NRdTot=       0 NPtTot=           0 NUsed=           0 NTot=          32
 NSgBfM=   933   933   933   933   933 MxSgAt=   107 MxSgA2=   107.
 Leave Link  302 at Sat Aug 12 03:28:20 2023, MaxMem=  4026531840 cpu:              60.9 elap:               1.9
 (Enter /sw/arch/Centos8/EB_production/2021/software/Gaussian/g16.c01/l303.exe)
 DipDrv:  MaxL=1.
 Leave Link  303 at Sat Aug 12 03:28:20 2023, MaxMem=  4026531840 cpu:              10.4 elap:               0.4
 (Enter /sw/arch/Centos8/EB_production/2021/software/Gaussian/g16.c01/l308.exe)
 Leave Link  308 at Sat Aug 12 03:28:20 2023, MaxMem=  4026531840 cpu:              10.5 elap:               0.4
 (Enter /sw/arch/Centos8/EB_production/2021/software/Gaussian/g16.c01/l401.exe)
 ExpMin= 3.37D-02 ExpMax= 6.09D+04 ExpMxC= 9.15D+03 IAcc=3 IRadAn=         5 AccDes= 0.00D+00
 Harris functional with IExCor= 1009 and IRadAn=       5 diagonalized for initial guess.
 HarFok:  IExCor= 1009 AccDes= 0.00D+00 IRadAn=         5 IDoV= 1 UseB2=F ITyADJ=14
 ICtDFT=  3500011 ScaDFX=  1.000000  1.000000  1.000000  1.000000
 FoFCou: FMM=F IPFlag=           0 FMFlag=      100000 FMFlg1=        2001
         NFxFlg=           0 DoJE=T BraDBF=F KetDBF=T FulRan=T
         wScrn=  0.000000 ICntrl=       500 IOpCl=  0 I1Cent=   200000004 NGrid=           0
         NMat0=    1 NMatS0=      1 NMatT0=    0 NMatD0=    1 NMtDS0=    0 NMtDT0=    0
 Symmetry not used in FoFCou.
 Harris En= -4063.19699854843    
 JPrj=0 DoOrth=F DoCkMO=F.
 Leave Link  401 at Sat Aug 12 03:28:25 2023, MaxMem=  4026531840 cpu:             153.8 elap:               4.9
 (Enter /sw/arch/Centos8/EB_production/2021/software/Gaussian/g16.c01/l502.exe)
 Two-electron integral symmetry not used.
 Closed shell SCF:
 Using DIIS extrapolation, IDIIS=  1040.
 NGot=  4026531840 LenX=  4024591222 LenY=  4023641572
 Requested convergence on RMS density matrix=1.00D-08 within  90 cycles.
 Requested convergence on MAX density matrix=1.00D-06.
 Requested convergence on             energy=1.00D-06.
 No special actions if energy rises.
 Fock matrices will be formed incrementally for  20 cycles.

 Cycle   1  Pass 1  IDiag  1:
 FoFJK:  IHMeth= 1 ICntrl=       0 DoSepK=F KAlg= 0 I1Cent=           0 FoldK=F
 IRaf= 990000000 NMat=       1 IRICut=       1 DoRegI=T DoRafI=F ISym2E= 0 IDoP0=0 IntGTp=1.
 FoFCou: FMM=T IPFlag=           0 FMFlag=      100000 FMFlg1=        2001
         NFxFlg=           0 DoJE=F BraDBF=F KetDBF=F FulRan=T
         wScrn=  0.000000 ICntrl=         0 IOpCl=  0 I1Cent=           0 NGrid=           0
         NMat0=    1 NMatS0=      1 NMatT0=    0 NMatD0=    1 NMtDS0=    0 NMtDT0=    0
 Symmetry not used in FoFCou.
 FMM levels:  10  Number of levels for PrismC:   9
 E= -4061.59665293465    
 DIIS: error= 1.47D-02 at cycle   1 NSaved=   1.
 NSaved= 1 IEnMin= 1 EnMin= -4061.59665293465     IErMin= 1 ErrMin= 1.47D-02
 ErrMax= 1.47D-02  0.00D+00 EMaxC= 1.00D-01 BMatC= 1.03D+00 BMatP= 1.03D+00
 IDIUse=3 WtCom= 8.53D-01 WtEn= 1.47D-01
 Coeff-Com:  0.100D+01
 Coeff-En:   0.100D+01
 Coeff:      0.100D+01
 Gap=     0.255 Goal=   None    Shift=    0.000
 GapD=    0.255 DampG=1.000 DampE=0.250 DampFc=0.2500 IDamp=-1.
 Damping current iteration by 2.50D-01
 RMSDP=3.67D-03 MaxDP=2.27D-01              OVMax= 1.74D-01

 Cycle   2  Pass 1  IDiag  1:
 RMSU=  8.50D-04    CP:  9.76D-01
 E= -4061.99099169278     Delta-E=       -0.394338758131 Rises=F Damp=T
 DIIS: error= 7.63D-03 at cycle   2 NSaved=   2.
 NSaved= 2 IEnMin= 2 EnMin= -4061.99099169278     IErMin= 2 ErrMin= 7.63D-03
 ErrMax= 7.63D-03  0.00D+00 EMaxC= 1.00D-01 BMatC= 2.82D-01 BMatP= 1.03D+00
 IDIUse=3 WtCom= 9.24D-01 WtEn= 7.63D-02
 Coeff-Com: -0.628D+00 0.163D+01
 Coeff-En:   0.000D+00 0.100D+01
 Coeff:     -0.580D+00 0.158D+01
 Gap=     0.252 Goal=   None    Shift=    0.000
 RMSDP=3.41D-03 MaxDP=6.18D-01 DE=-3.94D-01 OVMax= 4.88D-01

 Cycle   3  Pass 1  IDiag  1:
 RMSU=  3.30D-03    CP:  9.45D-01  1.83D+00
 E= -4060.48126849456     Delta-E=        1.509723198222 Rises=F Damp=F
 DIIS: error= 7.80D-02 at cycle   3 NSaved=   3.
 NSaved= 3 IEnMin= 2 EnMin= -4061.99099169278     IErMin= 2 ErrMin= 7.63D-03
 ErrMax= 7.80D-02  0.00D+00 EMaxC= 1.00D-01 BMatC= 3.53D+00 BMatP= 2.82D-01
 IDIUse=2 WtCom= 0.00D+00 WtEn= 1.00D+00
 Coeff-En:   0.000D+00 0.813D+00 0.187D+00
 Coeff:      0.000D+00 0.813D+00 0.187D+00
 Gap=     0.326 Goal=   None    Shift=    0.000
 RMSDP=4.20D-03 MaxDP=6.85D-01 DE= 1.51D+00 OVMax= 3.43D-01

 Cycle   4  Pass 1  IDiag  1:
 RMSU=  1.28D-03    CP:  9.11D-01  2.85D+00 -1.73D-01
 E= -4060.95079843683     Delta-E=       -0.469529942264 Rises=F Damp=F
 DIIS: error= 6.86D-02 at cycle   4 NSaved=   4.
 NSaved= 4 IEnMin= 2 EnMin= -4061.99099169278     IErMin= 2 ErrMin= 7.63D-03
 ErrMax= 6.86D-02  0.00D+00 EMaxC= 1.00D-01 BMatC= 2.98D+00 BMatP= 2.82D-01
 IDIUse=2 WtCom= 0.00D+00 WtEn= 1.00D+00
 EnCoef did     1 forward-backward iterations
 Coeff-En:   0.177D-01 0.000D+00 0.456D+00 0.526D+00
 Coeff:      0.177D-01 0.000D+00 0.456D+00 0.526D+00
 Gap=     0.156 Goal=   None    Shift=    0.000
 RMSDP=1.78D-03 MaxDP=2.26D-01 DE=-4.70D-01 OVMax= 2.75D-01

 Cycle   5  Pass 1  IDiag  1:
 RMSU=  8.02D-04    CP:  9.42D-01  1.70D+00  1.27D-01  5.07D-01
 E= -4062.66093740019     Delta-E=       -1.710138963361 Rises=F Damp=F
 DIIS: error= 5.98D-03 at cycle   5 NSaved=   5.
 NSaved= 5 IEnMin= 5 EnMin= -4062.66093740019     IErMin= 5 ErrMin= 5.98D-03
 ErrMax= 5.98D-03  0.00D+00 EMaxC= 1.00D-01 BMatC= 7.60D-02 BMatP= 2.82D-01
 IDIUse=3 WtCom= 9.40D-01 WtEn= 5.98D-02
 Coeff-Com: -0.658D+00 0.897D+00 0.636D-01-0.810D-01 0.779D+00
 Coeff-En:   0.000D+00 0.000D+00 0.179D-02 0.000D+00 0.998D+00
 Coeff:     -0.619D+00 0.843D+00 0.599D-01-0.762D-01 0.792D+00
 Gap=     0.156 Goal=   None    Shift=    0.000
 RMSDP=6.07D-04 MaxDP=7.00D-02 DE=-1.71D+00 OVMax= 4.34D-02

 Cycle   6  Pass 1  IDiag  1:
 RMSU=  3.70D-04    CP:  9.32D-01  2.17D+00  1.58D-01  3.58D-01  8.89D-01
 E= -4062.73317389421     Delta-E=       -0.072236494019 Rises=F Damp=F
 DIIS: error= 2.43D-03 at cycle   6 NSaved=   6.
 NSaved= 6 IEnMin= 6 EnMin= -4062.73317389421     IErMin= 6 ErrMin= 2.43D-03
 ErrMax= 2.43D-03  0.00D+00 EMaxC= 1.00D-01 BMatC= 1.14D-02 BMatP= 7.60D-02
 IDIUse=3 WtCom= 9.76D-01 WtEn= 2.43D-02
 Coeff-Com: -0.425D+00 0.571D+00 0.350D-01-0.675D-01 0.505D+00 0.382D+00
 Coeff-En:   0.000D+00 0.000D+00 0.000D+00 0.000D+00 0.000D+00 0.100D+01
 Coeff:     -0.415D+00 0.557D+00 0.341D-01-0.658D-01 0.493D+00 0.397D+00
 Gap=     0.161 Goal=   None    Shift=    0.000
 RMSDP=2.50D-04 MaxDP=2.49D-02 DE=-7.22D-02 OVMax= 2.14D-02

 Cycle   7  Pass 1  IDiag  1:
 RMSU=  1.09D-04    CP:  9.34D-01  2.16D+00  1.43D-01  3.32D-01  9.43D-01
                    CP:  4.28D-01
 E= -4062.74321195024     Delta-E=       -0.010038056031 Rises=F Damp=F
 DIIS: error= 1.74D-03 at cycle   7 NSaved=   7.
 NSaved= 7 IEnMin= 7 EnMin= -4062.74321195024     IErMin= 7 ErrMin= 1.74D-03
 ErrMax= 1.74D-03  0.00D+00 EMaxC= 1.00D-01 BMatC= 2.12D-03 BMatP= 1.14D-02
 IDIUse=3 WtCom= 9.83D-01 WtEn= 1.74D-02
 Coeff-Com: -0.884D-01 0.114D+00 0.115D-01-0.285D-01 0.963D-01 0.200D+00
 Coeff-Com:  0.695D+00
 Coeff-En:   0.000D+00 0.000D+00 0.000D+00 0.000D+00 0.000D+00 0.243D-01
 Coeff-En:   0.976D+00
 Coeff:     -0.868D-01 0.112D+00 0.113D-01-0.280D-01 0.946D-01 0.197D+00
 Coeff:      0.700D+00
 Gap=     0.160 Goal=   None    Shift=    0.000
 RMSDP=6.23D-05 MaxDP=4.73D-03 DE=-1.00D-02 OVMax= 6.13D-03

 Cycle   8  Pass 1  IDiag  1:
 RMSU=  4.71D-05    CP:  9.34D-01  2.16D+00  1.43D-01  3.29D-01  9.54D-01
                    CP:  5.03D-01  7.37D-01
 E= -4062.74437957829     Delta-E=       -0.001167628050 Rises=F Damp=F
 DIIS: error= 7.53D-04 at cycle   8 NSaved=   8.
 NSaved= 8 IEnMin= 8 EnMin= -4062.74437957829     IErMin= 8 ErrMin= 7.53D-04
 ErrMax= 7.53D-04  0.00D+00 EMaxC= 1.00D-01 BMatC= 5.24D-04 BMatP= 2.12D-03
 IDIUse=3 WtCom= 9.92D-01 WtEn= 7.53D-03
 Coeff-Com:  0.302D-01-0.443D-01 0.292D-02-0.780D-02-0.419D-01 0.388D-01
 Coeff-Com:  0.418D+00 0.604D+00
 Coeff-En:   0.000D+00 0.000D+00 0.000D+00 0.000D+00 0.000D+00 0.000D+00
 Coeff-En:   0.000D+00 0.100D+01
 Coeff:      0.300D-01-0.440D-01 0.289D-02-0.774D-02-0.416D-01 0.385D-01
 Coeff:      0.415D+00 0.607D+00
 Gap=     0.160 Goal=   None    Shift=    0.000
 RMSDP=2.75D-05 MaxDP=2.06D-03 DE=-1.17D-03 OVMax= 3.77D-03

 Cycle   9  Pass 1  IDiag  1:
 RMSU=  1.96D-05    CP:  9.34D-01  2.16D+00  1.45D-01  3.30D-01  9.59D-01
                    CP:  5.11D-01  8.32D-01  6.92D-01
 E= -4062.74472820304     Delta-E=       -0.000348624751 Rises=F Damp=F
 DIIS: error= 2.99D-04 at cycle   9 NSaved=   9.
 NSaved= 9 IEnMin= 9 EnMin= -4062.74472820304     IErMin= 9 ErrMin= 2.99D-04
 ErrMax= 2.99D-04  0.00D+00 EMaxC= 1.00D-01 BMatC= 6.38D-05 BMatP= 5.24D-04
 IDIUse=3 WtCom= 9.97D-01 WtEn= 2.99D-03
 Coeff-Com:  0.286D-01-0.396D-01 0.853D-03-0.162D-02-0.368D-01-0.887D-02
 Coeff-Com:  0.122D+00 0.330D+00 0.605D+00
 Coeff-En:   0.000D+00 0.000D+00 0.000D+00 0.000D+00 0.000D+00 0.000D+00
 Coeff-En:   0.000D+00 0.000D+00 0.100D+01
 Coeff:      0.285D-01-0.394D-01 0.850D-03-0.162D-02-0.367D-01-0.884D-02
 Coeff:      0.122D+00 0.329D+00 0.606D+00
 Gap=     0.159 Goal=   None    Shift=    0.000
 RMSDP=1.02D-05 MaxDP=9.21D-04 DE=-3.49D-04 OVMax= 1.42D-03

 Cycle  10  Pass 1  IDiag  1:
 RMSU=  8.21D-06    CP:  9.34D-01  2.16D+00  1.45D-01  3.28D-01  9.60D-01
                    CP:  5.17D-01  8.36D-01  7.47D-01  8.36D-01
 E= -4062.74477323319     Delta-E=       -0.000045030152 Rises=F Damp=F
 DIIS: error= 6.08D-05 at cycle  10 NSaved=  10.
 NSaved=10 IEnMin=10 EnMin= -4062.74477323319     IErMin=10 ErrMin= 6.08D-05
 ErrMax= 6.08D-05  0.00D+00 EMaxC= 1.00D-01 BMatC= 4.54D-06 BMatP= 6.38D-05
 IDIUse=1 WtCom= 1.00D+00 WtEn= 0.00D+00
 Coeff-Com:  0.101D-01-0.134D-01 0.119D-03 0.833D-04-0.127D-01-0.114D-01
 Coeff-Com: -0.514D-02 0.732D-01 0.350D+00 0.609D+00
 Coeff:      0.101D-01-0.134D-01 0.119D-03 0.833D-04-0.127D-01-0.114D-01
 Coeff:     -0.514D-02 0.732D-01 0.350D+00 0.609D+00
 Gap=     0.159 Goal=   None    Shift=    0.000
 RMSDP=4.32D-06 MaxDP=3.56D-04 DE=-4.50D-05 OVMax= 4.28D-04

 Cycle  11  Pass 1  IDiag  1:
 RMSU=  2.21D-06    CP:  9.34D-01  2.16D+00  1.46D-01  3.27D-01  9.61D-01
                    CP:  5.16D-01  8.41D-01  7.60D-01  8.87D-01  6.58D-01
 E= -4062.74477727309     Delta-E=       -0.000004039897 Rises=F Damp=F
 DIIS: error= 1.78D-05 at cycle  11 NSaved=  11.
 NSaved=11 IEnMin=11 EnMin= -4062.74477727309     IErMin=11 ErrMin= 1.78D-05
 ErrMax= 1.78D-05  0.00D+00 EMaxC= 1.00D-01 BMatC= 5.08D-07 BMatP= 4.54D-06
 IDIUse=1 WtCom= 1.00D+00 WtEn= 0.00D+00
 Coeff-Com:  0.317D-02-0.403D-02 0.546D-05 0.111D-03-0.387D-02-0.476D-02
 Coeff-Com: -0.968D-02 0.174D-01 0.153D+00 0.344D+00 0.504D+00
 Coeff:      0.317D-02-0.403D-02 0.546D-05 0.111D-03-0.387D-02-0.476D-02
 Coeff:     -0.968D-02 0.174D-01 0.153D+00 0.344D+00 0.504D+00
 Gap=     0.159 Goal=   None    Shift=    0.000
 RMSDP=1.30D-06 MaxDP=8.24D-05 DE=-4.04D-06 OVMax= 1.04D-04

 Cycle  12  Pass 1  IDiag  1:
 RMSU=  8.83D-07    CP:  9.34D-01  2.16D+00  1.46D-01  3.26D-01  9.61D-01
                    CP:  5.16D-01  8.41D-01  7.61D-01  8.85D-01  6.88D-01
                    CP:  5.86D-01
 E= -4062.74477767166     Delta-E=       -0.000000398573 Rises=F Damp=F
 DIIS: error= 1.24D-05 at cycle  12 NSaved=  12.
 NSaved=12 IEnMin=12 EnMin= -4062.74477767166     IErMin=12 ErrMin= 1.24D-05
 ErrMax= 1.24D-05  0.00D+00 EMaxC= 1.00D-01 BMatC= 1.04D-07 BMatP= 5.08D-07
 IDIUse=1 WtCom= 1.00D+00 WtEn= 0.00D+00
 Coeff-Com:  0.646D-03-0.780D-03-0.160D-04 0.476D-04-0.628D-03-0.106D-02
 Coeff-Com: -0.368D-02 0.334D-02 0.517D-01 0.132D+00 0.282D+00 0.536D+00
 Coeff:      0.646D-03-0.780D-03-0.160D-04 0.476D-04-0.628D-03-0.106D-02
 Coeff:     -0.368D-02 0.334D-02 0.517D-01 0.132D+00 0.282D+00 0.536D+00
 Gap=     0.159 Goal=   None    Shift=    0.000
 RMSDP=5.44D-07 MaxDP=4.55D-05 DE=-3.99D-07 OVMax= 5.42D-05

 Cycle  13  Pass 1  IDiag  1:
 RMSU=  3.40D-07    CP:  9.34D-01  2.16D+00  1.46D-01  3.27D-01  9.61D-01
                    CP:  5.16D-01  8.40D-01  7.60D-01  8.89D-01  6.91D-01
                    CP:  6.67D-01  7.45D-01
 E= -4062.74477774373     Delta-E=       -0.000000072072 Rises=F Damp=F
 DIIS: error= 4.51D-06 at cycle  13 NSaved=  13.
 NSaved=13 IEnMin=13 EnMin= -4062.74477774373     IErMin=13 ErrMin= 4.51D-06
 ErrMax= 4.51D-06  0.00D+00 EMaxC= 1.00D-01 BMatC= 1.57D-08 BMatP= 1.04D-07
 IDIUse=1 WtCom= 1.00D+00 WtEn= 0.00D+00
 Coeff-Com:  0.450D-04-0.403D-04-0.153D-04 0.198D-04 0.739D-04-0.303D-04
 Coeff-Com: -0.753D-03 0.695D-03 0.152D-01 0.421D-01 0.113D+00 0.326D+00
 Coeff-Com:  0.503D+00
 Coeff:      0.450D-04-0.403D-04-0.153D-04 0.198D-04 0.739D-04-0.303D-04
 Coeff:     -0.753D-03 0.695D-03 0.152D-01 0.421D-01 0.113D+00 0.326D+00
 Coeff:      0.503D+00
 Gap=     0.159 Goal=   None    Shift=    0.000
 RMSDP=2.38D-07 MaxDP=2.14D-05 DE=-7.21D-08 OVMax= 3.39D-05

 Cycle  14  Pass 1  IDiag  1:
 RMSU=  1.64D-07    CP:  9.34D-01  2.16D+00  1.46D-01  3.27D-01  9.61D-01
                    CP:  5.16D-01  8.40D-01  7.60D-01  8.91D-01  6.95D-01
                    CP:  6.67D-01  8.44D-01  8.45D-01
 E= -4062.74477775703     Delta-E=       -0.000000013293 Rises=F Damp=F
 DIIS: error= 1.72D-06 at cycle  14 NSaved=  14.
 NSaved=14 IEnMin=14 EnMin= -4062.74477775703     IErMin=14 ErrMin= 1.72D-06
 ErrMax= 1.72D-06  0.00D+00 EMaxC= 1.00D-01 BMatC= 2.19D-09 BMatP= 1.57D-08
 IDIUse=1 WtCom= 1.00D+00 WtEn= 0.00D+00
 Coeff-Com: -0.882D-04 0.111D-03-0.788D-05 0.262D-05 0.133D-03 0.195D-03
 Coeff-Com:  0.530D-03 0.657D-04-0.262D-02-0.712D-02-0.894D-02 0.272D-01
 Coeff-Com:  0.223D+00 0.767D+00
 Coeff:     -0.882D-04 0.111D-03-0.788D-05 0.262D-05 0.133D-03 0.195D-03
 Coeff:      0.530D-03 0.657D-04-0.262D-02-0.712D-02-0.894D-02 0.272D-01
 Coeff:      0.223D+00 0.767D+00
 Gap=     0.159 Goal=   None    Shift=    0.000
 RMSDP=1.49D-07 MaxDP=2.04D-05 DE=-1.33D-08 OVMax= 3.98D-05

 Cycle  15  Pass 1  IDiag  1:
 RMSU=  7.82D-08    CP:  9.34D-01  2.16D+00  1.45D-01  3.27D-01  9.61D-01
                    CP:  5.16D-01  8.40D-01  7.60D-01  8.91D-01  6.97D-01
                    CP:  6.85D-01  8.94D-01  1.09D+00  1.24D+00
 E= -4062.74477776077     Delta-E=       -0.000000003742 Rises=F Damp=F
 DIIS: error= 7.02D-07 at cycle  15 NSaved=  15.
 NSaved=15 IEnMin=15 EnMin= -4062.74477776077     IErMin=15 ErrMin= 7.02D-07
 ErrMax= 7.02D-07  0.00D+00 EMaxC= 1.00D-01 BMatC= 2.88D-10 BMatP= 2.19D-09
 IDIUse=1 WtCom= 1.00D+00 WtEn= 0.00D+00
 Coeff-Com: -0.446D-04 0.517D-04-0.797D-06-0.343D-05 0.163D-04 0.750D-04
 Coeff-Com:  0.424D-03-0.134D-03-0.587D-02-0.168D-01-0.434D-01-0.103D+00
 Coeff-Com: -0.688D-01 0.393D+00 0.845D+00
 Coeff:     -0.446D-04 0.517D-04-0.797D-06-0.343D-05 0.163D-04 0.750D-04
 Coeff:      0.424D-03-0.134D-03-0.587D-02-0.168D-01-0.434D-01-0.103D+00
 Coeff:     -0.688D-01 0.393D+00 0.845D+00
 Gap=     0.159 Goal=   None    Shift=    0.000
 RMSDP=1.22D-07 MaxDP=1.71D-05 DE=-3.74D-09 OVMax= 3.65D-05

 Cycle  16  Pass 1  IDiag  1:
 RMSU=  4.22D-08    CP:  9.34D-01  2.16D+00  1.45D-01  3.27D-01  9.61D-01
                    CP:  5.16D-01  8.40D-01  7.60D-01  8.92D-01  6.98D-01
                    CP:  6.94D-01  9.52D-01  1.25D+00  1.68D+00  1.27D+00
 E= -4062.74477776238     Delta-E=       -0.000000001613 Rises=F Damp=F
 DIIS: error= 3.78D-07 at cycle  16 NSaved=  16.
 NSaved=16 IEnMin=16 EnMin= -4062.74477776238     IErMin=16 ErrMin= 3.78D-07
 ErrMax= 3.78D-07  0.00D+00 EMaxC= 1.00D-01 BMatC= 1.17D-10 BMatP= 2.88D-10
 IDIUse=1 WtCom= 1.00D+00 WtEn= 0.00D+00
 Coeff-Com:  0.150D-06-0.282D-05 0.210D-05-0.262D-05-0.318D-04-0.263D-04
 Coeff-Com:  0.106D-04-0.188D-03-0.263D-02-0.740D-02-0.219D-01-0.673D-01
 Coeff-Com: -0.111D+00-0.209D-01 0.481D+00 0.750D+00
 Coeff:      0.150D-06-0.282D-05 0.210D-05-0.262D-05-0.318D-04-0.263D-04
 Coeff:      0.106D-04-0.188D-03-0.263D-02-0.740D-02-0.219D-01-0.673D-01
 Coeff:     -0.111D+00-0.209D-01 0.481D+00 0.750D+00
 Gap=     0.159 Goal=   None    Shift=    0.000
 RMSDP=6.94D-08 MaxDP=1.09D-05 DE=-1.61D-09 OVMax= 2.18D-05

 Cycle  17  Pass 1  IDiag  1:
 RMSU=  2.28D-08    CP:  9.34D-01  2.16D+00  1.45D-01  3.27D-01  9.61D-01
                    CP:  5.16D-01  8.40D-01  7.60D-01  8.93D-01  6.99D-01
                    CP:  7.00D-01  9.80D-01  1.36D+00  1.89D+00  1.61D+00
                    CP:  1.13D+00
 E= -4062.74477776285     Delta-E=       -0.000000000471 Rises=F Damp=F
 DIIS: error= 2.17D-07 at cycle  17 NSaved=  17.
 NSaved=17 IEnMin=17 EnMin= -4062.74477776285     IErMin=17 ErrMin= 2.17D-07
 ErrMax= 2.17D-07  0.00D+00 EMaxC= 1.00D-01 BMatC= 4.40D-11 BMatP= 1.17D-10
 IDIUse=1 WtCom= 1.00D+00 WtEn= 0.00D+00
 Coeff-Com:  0.253D-05-0.391D-05 0.194D-05-0.137D-05-0.123D-04-0.209D-04
 Coeff-Com: -0.636D-04-0.131D-03-0.590D-03-0.125D-02-0.371D-02-0.157D-01
 Coeff-Com: -0.437D-01-0.812D-01 0.784D-01 0.389D+00 0.678D+00
 Coeff:      0.253D-05-0.391D-05 0.194D-05-0.137D-05-0.123D-04-0.209D-04
 Coeff:     -0.636D-04-0.131D-03-0.590D-03-0.125D-02-0.371D-02-0.157D-01
 Coeff:     -0.437D-01-0.812D-01 0.784D-01 0.389D+00 0.678D+00
 Gap=     0.159 Goal=   None    Shift=    0.000
 RMSDP=2.56D-08 MaxDP=3.68D-06 DE=-4.71D-10 OVMax= 7.70D-06

 Cycle  18  Pass 1  IDiag  1:
 RMSU=  9.47D-09    CP:  9.34D-01  2.16D+00  1.45D-01  3.27D-01  9.61D-01
                    CP:  5.16D-01  8.40D-01  7.60D-01  8.93D-01  6.99D-01
                    CP:  7.01D-01  9.89D-01  1.39D+00  1.98D+00  1.72D+00
                    CP:  1.34D+00  9.77D-01
 E= -4062.74477776280     Delta-E=        0.000000000051 Rises=F Damp=F
 DIIS: error= 1.42D-07 at cycle  18 NSaved=  18.
 NSaved=18 IEnMin=17 EnMin= -4062.74477776285     IErMin=18 ErrMin= 1.42D-07
 ErrMax= 1.42D-07  0.00D+00 EMaxC= 1.00D-01 BMatC= 1.21D-11 BMatP= 4.40D-11
 IDIUse=1 WtCom= 1.00D+00 WtEn= 0.00D+00
 Coeff-Com: -0.202D-05 0.271D-05 0.904D-06-0.472D-06 0.501D-05-0.295D-06
 Coeff-Com: -0.229D-04-0.512D-04 0.761D-04 0.615D-03 0.259D-02 0.687D-02
 Coeff-Com:  0.356D-02-0.289D-01-0.732D-01 0.134D-01 0.346D+00 0.729D+00
 Coeff:     -0.202D-05 0.271D-05 0.904D-06-0.472D-06 0.501D-05-0.295D-06
 Coeff:     -0.229D-04-0.512D-04 0.761D-04 0.615D-03 0.259D-02 0.687D-02
 Coeff:      0.356D-02-0.289D-01-0.732D-01 0.134D-01 0.346D+00 0.729D+00
 Gap=     0.159 Goal=   None    Shift=    0.000
 RMSDP=1.18D-08 MaxDP=1.44D-06 DE= 5.09D-11 OVMax= 3.28D-06

 Cycle  19  Pass 1  IDiag  1:
 RMSU=  4.31D-09    CP:  9.34D-01  2.16D+00  1.45D-01  3.27D-01  9.61D-01
                    CP:  5.16D-01  8.40D-01  7.60D-01  8.93D-01  6.99D-01
                    CP:  7.02D-01  9.92D-01  1.41D+00  2.00D+00  1.77D+00
                    CP:  1.41D+00  1.16D+00  9.23D-01
 E= -4062.74477776289     Delta-E=       -0.000000000093 Rises=F Damp=F
 DIIS: error= 5.86D-08 at cycle  19 NSaved=  19.
 NSaved=19 IEnMin=19 EnMin= -4062.74477776289     IErMin=19 ErrMin= 5.86D-08
 ErrMax= 5.86D-08  0.00D+00 EMaxC= 1.00D-01 BMatC= 2.48D-12 BMatP= 1.21D-11
 IDIUse=1 WtCom= 1.00D+00 WtEn= 0.00D+00
 Coeff-Com: -0.288D-05 0.387D-05 0.286D-06-0.162D-06 0.669D-05 0.618D-05
 Coeff-Com:  0.659D-05-0.111D-04 0.571D-04 0.385D-03 0.189D-02 0.651D-02
 Coeff-Com:  0.107D-01 0.291D-02-0.558D-01-0.742D-01 0.541D-01 0.407D+00
 Coeff-Com:  0.646D+00
 Coeff:     -0.288D-05 0.387D-05 0.286D-06-0.162D-06 0.669D-05 0.618D-05
 Coeff:      0.659D-05-0.111D-04 0.571D-04 0.385D-03 0.189D-02 0.651D-02
 Coeff:      0.107D-01 0.291D-02-0.558D-01-0.742D-01 0.541D-01 0.407D+00
 Coeff:      0.646D+00
 Gap=     0.159 Goal=   None    Shift=    0.000
 RMSDP=4.77D-09 MaxDP=4.13D-07 DE=-9.28D-11 OVMax= 1.07D-06

 SCF Done:  E(RPBE1PBE) =  -4062.74477776     A.U. after   19 cycles
            NFock= 19  Conv=0.48D-08     -V/T= 2.0063
 KE= 4.037204703352D+03 PE=-2.957189593131D+04 EE= 1.145273266865D+04
 Leave Link  502 at Sat Aug 12 03:34:13 2023, MaxMem=  4026531840 cpu:           10978.2 elap:             348.1
 (Enter /sw/arch/Centos8/EB_production/2021/software/Gaussian/g16.c01/l508.exe)
 QCSCF skips out because SCF is already converged.
 Leave Link  508 at Sat Aug 12 03:34:13 2023, MaxMem=  4026531840 cpu:               0.3 elap:               0.0
 (Enter /sw/arch/Centos8/EB_production/2021/software/Gaussian/g16.c01/l801.exe)
 DoSCS=F DFT=T ScalE2(SS,OS)=  1.000000  1.000000
 Range of M.O.s used for correlation:     1   916
 NBasis=   916 NAE=   216 NBE=   216 NFC=     0 NFV=     0
 NROrb=    916 NOA=   216 NOB=   216 NVA=   700 NVB=   700
 Leave Link  801 at Sat Aug 12 03:34:14 2023, MaxMem=  4026531840 cpu:               0.5 elap:               0.0
 (Enter /sw/arch/Centos8/EB_production/2021/software/Gaussian/g16.c01/l1002.exe)
 Minotr:  Closed shell wavefunction.
          Direct CPHF calculation.
          Differentiating once with respect to magnetic field using GIAOs.
          Electric field/nuclear overlap derivatives assumed to be zero.
          Requested convergence is 1.0D-08 RMS, and 1.0D-07 maximum.
          Secondary convergence is 1.0D-12 RMS, and 1.0D-12 maximum.
          NewPWx=T KeepS1=F KeepF1=F KeepIn=T MapXYZ=F SortEE=F KeepMc=T.
        32902 words used for storage of precomputed grid.
 Two-electron integral symmetry not used.
          MDV=    4026531840 using IRadAn=       1.
          Solving linear equations simultaneously, MaxMat=      96.
 FoFCou: FMM=F IPFlag=           0 FMFlag=      100000 FMFlg1=        2001
         NFxFlg=           0 DoJE=F BraDBF=F KetDBF=T FulRan=T
         wScrn=  0.000000 ICntrl=      6100 IOpCl=  0 I1Cent=           7 NGrid=         107
         NMat0=    1 NMatS0=      1 NMatT0=    0 NMatD0=    1 NMtDS0=    0 NMtDT0=    0
 Symmetry not used in FoFCou.
   1 Symmetry operations used in ECPInt.
 ECPInt:  NShTT=  101475 NPrTT=  417266 LenC2=  101476 LenP2D=  417266.
 LDataN:  DoStor=T MaxTD1= 5 Len=  102
 Number of processors reduced to  28 by ecpmxn.
 FoFJK:  IHMeth= 1 ICntrl=    6127 DoSepK=F KAlg= 0 I1Cent=           0 FoldK=F
 IRaf=         1 NMat=       1 IRICut=       1 DoRegI=T DoRafI=F ISym2E= 0 IDoP0=0 IntGTp=1.
          There are     3 degrees of freedom in the 1st order CPHF.  IDoFFX=0 NUNeed=     3.
      3 vectors produced by pass  0 Test12= 5.04D-12 3.33D-08 XBig12= 3.31D+03 6.79D+00.
 AX will form     3 AO Fock derivatives at one time.
      3 vectors produced by pass  1 Test12= 5.04D-12 3.33D-08 XBig12= 1.34D+01 6.47D-01.
      3 vectors produced by pass  2 Test12= 5.04D-12 3.33D-08 XBig12= 1.10D-01 1.11D-01.
      3 vectors produced by pass  3 Test12= 5.04D-12 3.33D-08 XBig12= 3.26D-03 1.62D-02.
      3 vectors produced by pass  4 Test12= 5.04D-12 3.33D-08 XBig12= 3.22D-05 1.94D-03.
      3 vectors produced by pass  5 Test12= 5.04D-12 3.33D-08 XBig12= 1.03D-06 3.21D-04.
      3 vectors produced by pass  6 Test12= 5.04D-12 3.33D-08 XBig12= 9.44D-09 1.64D-05.
      3 vectors produced by pass  7 Test12= 5.04D-12 3.33D-08 XBig12= 6.14D-11 1.22D-06.
      3 vectors produced by pass  8 Test12= 5.04D-12 3.33D-08 XBig12= 1.42D-12 3.72D-07.
 InvSVY:  IOpt=1 It=  1 EMax= 7.11D-15
 Solved reduced A of dimension    27 with     3 vectors.
 Calculating GIAO nuclear magnetic shielding tensors.
 SCF GIAO Magnetic shielding tensor (ppm):
      1  P    Isotropic =   441.9015   Anisotropy =    62.9597
   XX=   482.0850   YX=    27.0838   ZX=    -3.4395
   XY=    -9.1986   YY=   439.1360   ZY=    28.0255
   XZ=     1.1906   YZ=   -20.8379   ZZ=   404.4834
   Eigenvalues:   404.0602   437.7696   483.8746
      2  P    Isotropic =   434.5343   Anisotropy =   106.9036
   XX=   487.3267   YX=    38.3692   ZX=    14.2544
   XY=    47.4555   YY=   398.1379   ZY=    -6.9139
   XZ=   -33.5755   YZ=     0.3699   ZZ=   418.1382
   Eigenvalues:   380.8351   416.9644   505.8033
      3  Fe   Isotropic = -4562.4974   Anisotropy =  8073.3009
   XX= -7003.4266   YX=  1174.6339   ZX=  -959.0546
   XY=  1192.4534   YY= -2379.6774   ZY= -3782.2807
   XZ=  -908.8472   YZ= -3717.0720   ZZ= -4304.3883
   Eigenvalues: -7295.7822 -7211.4133   819.7032
      4  C    Isotropic =   106.9619   Anisotropy =    81.5491
   XX=    76.6306   YX=   -14.4327   ZX=    -8.4071
   XY=   -19.8398   YY=   114.9703   ZY=   -44.1658
   XZ=     4.9854   YZ=   -30.6309   ZZ=   129.2848
   Eigenvalues:    64.9572    94.6006   161.3279
      5  C    Isotropic =   111.8203   Anisotropy =    78.3258
   XX=    71.4802   YX=    -0.3904   ZX=     2.1021
   XY=   -23.1163   YY=   136.6323   ZY=   -30.9639
   XZ=     5.7511   YZ=   -29.5660   ZZ=   127.3485
   Eigenvalues:    69.3841   102.0394   164.0375
      6  C    Isotropic =   112.7228   Anisotropy =    75.5764
   XX=    98.2484   YX=    14.3792   ZX=    -8.4316
   XY=    15.6208   YY=    97.5154   ZY=   -45.7058
   XZ=    -5.7069   YZ=   -21.4012   ZZ=   142.4045
   Eigenvalues:    74.9700   100.0913   163.1070
      7  C    Isotropic =   110.7395   Anisotropy =    84.0517
   XX=    93.4327   YX=    13.1261   ZX=    -1.3005
   XY=     7.8875   YY=   158.2399   ZY=   -15.5353
   XZ=     0.4299   YZ=   -33.5767   ZZ=    80.5458
   Eigenvalues:    73.1087    92.3358   166.7739
      8  C    Isotropic =   119.6794   Anisotropy =    81.0697
   XX=    95.8077   YX=     7.4334   ZX=   -32.1310
   XY=    30.6447   YY=   158.0645   ZY=    -7.2986
   XZ=   -36.2659   YZ=   -24.5500   ZZ=   105.1660
   Eigenvalues:    65.7900   119.5223   173.7258
      9  C    Isotropic =   115.4065   Anisotropy =    73.4788
   XX=    88.1277   YX=    18.2104   ZX=   -16.6632
   XY=    24.5915   YY=   139.7297   ZY=   -13.8528
   XZ=   -45.6594   YZ=   -18.5084   ZZ=   118.3620
   Eigenvalues:    67.1782   114.6489   164.3924
     10  C    Isotropic =   123.9094   Anisotropy =    81.5745
   XX=   101.3558   YX=    32.0614   ZX=     1.7064
   XY=    48.8571   YY=   131.1509   ZY=   -34.0364
   XZ=    -9.2970   YZ=   -25.3981   ZZ=   139.2216
   Eigenvalues:    69.9948   123.4409   178.2924
     11  C    Isotropic =   124.2186   Anisotropy =    80.9791
   XX=   124.8555   YX=     3.3302   ZX=   -16.0395
   XY=     7.7804   YY=   153.4235   ZY=   -32.8160
   XZ=   -23.2346   YZ=   -49.2087   ZZ=    94.3769
   Eigenvalues:    69.2159   125.2353   178.2047
     12  C    Isotropic =   120.9263   Anisotropy =    75.4559
   XX=   119.6680   YX=    -1.5050   ZX=   -12.3074
   XY=   -11.5312   YY=   117.9480   ZY=   -58.4303
   XZ=    -8.5137   YZ=   -40.2506   ZZ=   125.1631
   Eigenvalues:    69.2850   122.2637   171.2303
     13  C    Isotropic =   120.1298   Anisotropy =    80.1518
   XX=    92.4664   YX=    13.3997   ZX=    15.2825
   XY=     2.1378   YY=   142.9925   ZY=   -34.6962
   XZ=    40.4663   YZ=   -38.9042   ZZ=   124.9306
   Eigenvalues:    66.8482   119.9769   173.5644
     14  H    Isotropic =    29.1069   Anisotropy =     6.9999
   XX=    33.5121   YX=     3.5814   ZX=     3.5663
   XY=    -3.3172   YY=    30.2050   ZY=     4.9971
   XZ=    -1.0870   YZ=     1.5023   ZZ=    23.6037
   Eigenvalues:    22.1659    31.3814    33.7735
     15  H    Isotropic =    29.2294   Anisotropy =     5.8457
   XX=    30.8094   YX=     1.1166   ZX=     0.5161
   XY=     2.3269   YY=    26.7272   ZY=     4.0340
   XZ=    -0.1331   YZ=     3.4661   ZZ=    30.1516
   Eigenvalues:    24.0440    30.5177    33.1265
     16  H    Isotropic =    28.7537   Anisotropy =     9.0714
   XX=    34.6885   YX=    -2.6178   ZX=     1.5782
   XY=     1.2922   YY=    24.6411   ZY=     5.4987
   XZ=     0.2631   YZ=     2.3593   ZZ=    26.9314
   Eigenvalues:    21.6041    29.8557    34.8013
     17  H    Isotropic =    28.2199   Anisotropy =     5.2390
   XX=    31.3040   YX=     0.1943   ZX=    -1.9951
   XY=     2.3044   YY=    24.5751   ZY=     4.1561
   XZ=     1.9047   YZ=     2.3524   ZZ=    28.7807
   Eigenvalues:    22.6579    30.2893    31.7126
     18  H    Isotropic =    29.1391   Anisotropy =     6.4044
   XX=    32.5333   YX=    -1.4928   ZX=    -1.1926
   XY=    -0.5821   YY=    29.0574   ZY=     2.9041
   XZ=    -1.2004   YZ=     2.8770   ZZ=    25.8266
   Eigenvalues:    24.0989    29.9097    33.4087
     19  H    Isotropic =    28.3553   Anisotropy =     6.7610
   XX=    30.4514   YX=    -1.6810   ZX=     3.3835
   XY=     1.0506   YY=    26.1512   ZY=     4.6229
   XZ=     0.6214   YZ=     4.4451   ZZ=    28.4634
   Eigenvalues:    22.3519    29.8514    32.8627
     20  C    Isotropic =   128.4909   Anisotropy =    31.0427
   XX=   122.3809   YX=     1.6625   ZX=    -1.7387
   XY=     8.7133   YY=   142.7144   ZY=   -10.0962
   XZ=    -4.6176   YZ=   -13.6097   ZZ=   120.3774
   Eigenvalues:   115.1390   121.1477   149.1860
     21  C    Isotropic =    51.8703   Anisotropy =   183.1235
   XX=    55.4425   YX=    93.2540   ZX=    31.7621
   XY=   102.2777   YY=    71.4116   ZY=    32.5008
   XZ=    27.1997   YZ=    28.7234   ZZ=    28.7569
   Eigenvalues:   -34.6803    16.3387   173.9527
     22  C    Isotropic =    65.3996   Anisotropy =   172.7885
   XX=   106.0532   YX=    65.5879   ZX=    11.9987
   XY=    69.2101   YY=    89.1529   ZY=    60.7738
   XZ=    14.7263   YZ=    62.0846   ZZ=     0.9929
   Eigenvalues:   -33.7340    49.3409   180.5920
     23  C    Isotropic =    64.7138   Anisotropy =   164.3784
   XX=    83.2620   YX=    70.5020   ZX=    51.2921
   XY=    59.6775   YY=   112.2511   ZY=     9.9029
   XZ=    53.6265   YZ=    10.0751   ZZ=    -1.3716
   Eigenvalues:   -29.6673    49.5093   174.2994
     24  C    Isotropic =    67.5569   Anisotropy =   174.0035
   XX=    83.6266   YX=    67.6665   ZX=    62.4941
   XY=    65.5616   YY=   114.5486   ZY=    18.0506
   XZ=    60.3604   YZ=    17.9882   ZZ=     4.4955
   Eigenvalues:   -31.2442    50.3557   183.5592
     25  H    Isotropic =    24.5327   Anisotropy =    11.5420
   XX=    27.3341   YX=    -3.5039   ZX=    -4.1503
   XY=    -3.4497   YY=    23.5535   ZY=     2.1659
   XZ=    -5.1845   YZ=     2.4122   ZZ=    22.7104
   Eigenvalues:    19.8077    21.5629    32.2273
     26  C    Isotropic =    66.3826   Anisotropy =   175.2303
   XX=   104.3332   YX=    72.0542   ZX=     7.0347
   XY=    68.8641   YY=    94.6764   ZY=    61.3792
   XZ=     8.3809   YZ=    61.4317   ZZ=     0.1383
   Eigenvalues:   -35.3155    51.2605   183.2029
     27  H    Isotropic =    23.9286   Anisotropy =     6.3883
   XX=    26.4970   YX=    -2.4261   ZX=     0.8934
   XY=    -3.9400   YY=    20.4932   ZY=    -0.5815
   XZ=    -0.2449   YZ=    -2.9572   ZZ=    24.7956
   Eigenvalues:    18.7432    24.8551    28.1875
     28  C    Isotropic =    68.1595   Anisotropy =   174.8312
   XX=    65.1700   YX=   101.4774   ZX=    25.2858
   XY=   101.1865   YY=    78.9519   ZY=    28.4383
   XZ=    23.4468   YZ=    27.6584   ZZ=    60.3567
   Eigenvalues:   -29.5268    49.2917   184.7137
     29  H    Isotropic =    24.6920   Anisotropy =     6.0110
   XX=    25.9355   YX=    -3.7517   ZX=    -0.7577
   XY=    -3.5216   YY=    23.9134   ZY=    -1.1505
   XZ=    -1.0123   YZ=    -1.0603   ZZ=    24.2271
   Eigenvalues:    20.5978    24.7789    28.6993
     30  H    Isotropic =    24.7325   Anisotropy =     8.0138
   XX=    27.0022   YX=    -3.7626   ZX=    -1.4484
   XY=    -4.7034   YY=    22.9443   ZY=     0.6668
   XZ=    -1.7123   YZ=     0.0830   ZZ=    24.2510
   Eigenvalues:    20.2065    23.9159    30.0750
     31  H    Isotropic =    24.8140   Anisotropy =     3.9786
   XX=    24.9886   YX=    -2.3252   ZX=    -1.2832
   XY=    -2.4753   YY=    22.9198   ZY=    -0.8538
   XZ=    -1.5869   YZ=    -0.9766   ZZ=    26.5337
   Eigenvalues:    20.9052    26.0705    27.4664
     32  C    Isotropic =   130.0112   Anisotropy =    29.8319
   XX=   125.8650   YX=     8.9094   ZX=     0.1118
   XY=    10.7812   YY=   134.2073   ZY=   -13.5262
   XZ=    -7.5333   YZ=   -13.4852   ZZ=   129.9614
   Eigenvalues:   116.3450   123.7895   149.8992
     33  C    Isotropic =    55.8122   Anisotropy =   185.8159
   XX=   136.1940   YX=    45.3346   ZX=   -59.1782
   XY=    58.5137   YY=    44.8550   ZY=   -13.8208
   XZ=   -62.3603   YZ=   -18.8146   ZZ=   -13.6124
   Eigenvalues:   -35.2236    22.9707   179.6894
     34  C    Isotropic =    67.2979   Anisotropy =   169.2216
   XX=   135.9359   YX=    76.7801   ZX=   -34.2116
   XY=    72.2934   YY=     8.7970   ZY=     2.2729
   XZ=   -45.0617   YZ=     5.2942   ZZ=    57.1608
   Eigenvalues:   -30.5090    52.2904   180.1123
     35  C    Isotropic =    63.2062   Anisotropy =   164.0842
   XX=   138.4438   YX=    55.7137   ZX=   -22.5908
   XY=    53.0543   YY=    24.4881   ZY=   -55.1487
   XZ=   -23.6951   YZ=   -50.1377   ZZ=    26.6866
   Eigenvalues:   -30.6895    47.7124   172.5956
     36  C    Isotropic =    67.7722   Anisotropy =   173.0876
   XX=   151.6077   YX=    48.0294   ZX=   -32.1351
   XY=    50.9453   YY=    19.1426   ZY=   -54.4692
   XZ=   -28.5825   YZ=   -55.1520   ZZ=    32.5662
   Eigenvalues:   -31.2124    51.3650   183.1640
     37  H    Isotropic =    24.7539   Anisotropy =    10.6127
   XX=    21.9167   YX=     1.1222   ZX=     1.9303
   XY=     1.2597   YY=    23.3698   ZY=     4.5753
   XZ=     1.4786   YZ=     4.2448   ZZ=    28.9751
   Eigenvalues:    20.8695    21.5631    31.8290
     38  C    Isotropic =    66.3877   Anisotropy =   172.2979
   XX=   127.6599   YX=    81.5981   ZX=   -46.5847
   XY=    78.9782   YY=    17.2497   ZY=     7.1131
   XZ=   -45.6888   YZ=     7.5717   ZZ=    54.2535
   Eigenvalues:   -34.5330    52.4432   181.2529
     39  H    Isotropic =    27.0130   Anisotropy =     9.9910
   XX=    23.0516   YX=    -1.8859   ZX=     3.7608
   XY=     0.0271   YY=    33.5596   ZY=    -0.1459
   XZ=     4.0612   YZ=    -0.1805   ZZ=    24.4278
   Eigenvalues:    19.7418    27.6235    33.6737
     40  C    Isotropic =    68.7503   Anisotropy =   173.8003
   XX=   141.5767   YX=    46.0585   ZX=   -65.5387
   XY=    47.0445   YY=    70.3170   ZY=   -10.1503
   XZ=   -61.2098   YZ=   -10.2385   ZZ=    -5.6429
   Eigenvalues:   -29.6636    51.2973   184.6171
     41  H    Isotropic =    24.9084   Anisotropy =     5.9608
   XX=    22.5606   YX=    -1.1457   ZX=     3.2382
   XY=    -1.0574   YY=    24.8384   ZY=     1.0204
   XZ=     3.0106   YZ=     0.4970   ZZ=    27.3261
   Eigenvalues:    20.6001    25.2428    28.8822
     42  H    Isotropic =    25.1454   Anisotropy =     9.7185
   XX=    22.1077   YX=    -0.5732   ZX=     3.1646
   XY=     0.7461   YY=    25.2929   ZY=     5.0655
   XZ=     3.6739   YZ=     2.6034   ZZ=    28.0356
   Eigenvalues:    19.9771    23.8347    31.6244
     43  H    Isotropic =    25.0210   Anisotropy =     4.6096
   XX=    22.6875   YX=    -1.8030   ZX=     1.7023
   XY=    -1.5596   YY=    26.5179   ZY=     2.2375
   XZ=     2.0331   YZ=     1.5134   ZZ=    25.8576
   Eigenvalues:    20.8496    26.1193    28.0941
     44  H    Isotropic =    26.6515   Anisotropy =     5.0746
   XX=    26.6542   YX=     0.2088   ZX=    -0.8226
   XY=     0.6946   YY=    25.2118   ZY=    -2.7569
   XZ=    -1.2402   YZ=    -2.5419   ZZ=    28.0887
   Eigenvalues:    23.6286    26.2914    30.0346
     45  N    Isotropic =   233.7535   Anisotropy =    68.3203
   XX=   224.6803   YX=    32.2403   ZX=     9.3055
   XY=    40.8424   YY=   253.6897   ZY=     2.3891
   XZ=    15.7552   YZ=    -3.3656   ZZ=   222.8906
   Eigenvalues:   195.6334   226.3268   279.3004
     46  C    Isotropic =   154.5920   Anisotropy =    42.8332
   XX=   141.0515   YX=    -6.0428   ZX=     3.9927
   XY=    -7.1407   YY=   144.5741   ZY=   -13.2623
   XZ=     7.5760   YZ=   -10.0465   ZZ=   178.1504
   Eigenvalues:   135.7839   144.8446   183.1475
     47  H    Isotropic =    30.4742   Anisotropy =     6.7480
   XX=    30.3954   YX=     2.2923   ZX=    -0.2643
   XY=     3.6379   YY=    30.4466   ZY=    -3.2419
   XZ=    -0.5793   YZ=    -2.9475   ZZ=    30.5805
   Eigenvalues:    26.3870    30.0627    34.9728
     48  H    Isotropic =    31.0356   Anisotropy =     7.9464
   XX=    27.3624   YX=    -1.6597   ZX=    -2.2640
   XY=    -0.8023   YY=    34.3953   ZY=    -2.4127
   XZ=    -3.8903   YZ=    -3.7043   ZZ=    31.3490
   Eigenvalues:    24.9620    31.8115    36.3332
     49  H    Isotropic =    30.0648   Anisotropy =    12.0404
   XX=    28.1073   YX=    -1.0694   ZX=    -4.5977
   XY=    -0.2690   YY=    27.6629   ZY=    -1.7437
   XZ=    -7.4210   YZ=    -0.5122   ZZ=    34.4242
   Eigenvalues:    24.0990    28.0037    38.0917
     50  C    Isotropic =   150.2440   Anisotropy =    46.0230
   XX=   158.4038   YX=    14.3652   ZX=    20.9055
   XY=    14.9738   YY=   144.2899   ZY=    11.1812
   XZ=    14.9972   YZ=    10.2965   ZZ=   148.0382
   Eigenvalues:   134.4800   135.3260   180.9260
     51  H    Isotropic =    29.9739   Anisotropy =     8.5543
   XX=    35.1902   YX=     2.1042   ZX=    -1.5688
   XY=     0.6068   YY=    30.8042   ZY=     0.2863
   XZ=    -1.3252   YZ=     2.0616   ZZ=    23.9274
   Eigenvalues:    23.4966    30.7484    35.6768
     52  H    Isotropic =    29.8743   Anisotropy =    10.2319
   XX=    30.9242   YX=     4.2991   ZX=     0.8156
   XY=     2.4095   YY=    34.6893   ZY=     0.2948
   XZ=    -1.7331   YZ=     1.9330   ZZ=    24.0092
   Eigenvalues:    23.7901    29.1371    36.6955
     53  H    Isotropic =    29.8144   Anisotropy =     7.7934
   XX=    29.3850   YX=     2.7695   ZX=     5.3898
   XY=     0.9668   YY=    29.0680   ZY=     2.2185
   XZ=     1.9634   YZ=     1.2058   ZZ=    30.9902
   Eigenvalues:    26.3477    28.0854    35.0100
     54  H    Isotropic =    28.2657   Anisotropy =     5.1212
   XX=    26.3576   YX=     0.3004   ZX=     2.8972
   XY=     0.0529   YY=    31.3601   ZY=    -1.0611
   XZ=    -0.2297   YZ=    -1.3418   ZZ=    27.0793
   Eigenvalues:    25.2084    27.9088    31.6798
     55  N    Isotropic =   229.6648   Anisotropy =    50.3995
   XX=   244.2187   YX=     3.0128   ZX=   -23.2509
   XY=     8.6988   YY=   227.5918   ZY=   -16.5811
   XZ=   -30.2483   YZ=    -0.9281   ZZ=   217.1840
   Eigenvalues:   199.9920   225.7380   263.2645
     56  C    Isotropic =   147.4357   Anisotropy =    42.6761
   XX=   172.4288   YX=   -14.0296   ZX=    -6.8900
   XY=    -6.3349   YY=   134.8311   ZY=     4.7619
   XZ=    -2.8977   YZ=     5.1644   ZZ=   135.0471
   Eigenvalues:   129.5113   136.9093   175.8864
     57  H    Isotropic =    31.3478   Anisotropy =     7.4377
   XX=    34.8282   YX=     3.2059   ZX=     0.4528
   XY=     3.2903   YY=    26.8648   ZY=    -1.3772
   XZ=     2.3502   YZ=     0.1374   ZZ=    32.3503
   Eigenvalues:    25.5419    32.1951    36.3062
     58  H    Isotropic =    30.9799   Anisotropy =     7.7559
   XX=    33.6625   YX=     3.4500   ZX=    -3.9378
   XY=     3.5757   YY=    26.2898   ZY=    -1.1949
   XZ=     0.2745   YZ=     0.4029   ZZ=    32.9874
   Eigenvalues:    24.8715    31.9177    36.1505
     59  H    Isotropic =    30.8259   Anisotropy =     4.0475
   XX=    31.9809   YX=    -4.6292   ZX=    -2.0351
   XY=    -0.0762   YY=    29.6016   ZY=     0.2893
   XZ=     1.3866   YZ=     0.5782   ZZ=    30.8954
   Eigenvalues:    28.1402    30.8134    33.5242
     60  C    Isotropic =   155.8441   Anisotropy =    40.7566
   XX=   141.1237   YX=    -8.0937   ZX=     3.2262
   XY=   -13.8283   YY=   179.9863   ZY=     0.7263
   XZ=     0.3343   YZ=     5.0527   ZZ=   146.4223
   Eigenvalues:   137.5558   146.9614   183.0152
     61  H    Isotropic =    30.7851   Anisotropy =     9.2708
   XX=    25.1067   YX=     2.9552   ZX=    -1.1642
   XY=     3.1882   YY=    35.0102   ZY=    -3.9697
   XZ=    -1.9430   YZ=     0.1934   ZZ=    32.2383
   Eigenvalues:    24.1075    31.2821    36.9656
     62  H    Isotropic =    30.5197   Anisotropy =    11.2460
   XX=    24.9420   YX=     3.6381   ZX=    -0.2243
   XY=     3.3891   YY=    35.0603   ZY=     3.8732
   XZ=     0.7223   YZ=     3.2018   ZZ=    31.5568
   Eigenvalues:    23.7436    29.7985    38.0170
     63  H    Isotropic =    30.0619   Anisotropy =     6.7454
   XX=    30.2974   YX=     1.2952   ZX=    -0.4214
   XY=     0.5951   YY=    34.2049   ZY=    -0.5532
   XZ=    -3.1948   YZ=    -0.8086   ZZ=    25.6835
   Eigenvalues:    25.0468    30.5801    34.5588
     64  C    Isotropic =    56.6703   Anisotropy =   193.9963
   XX=   -24.7996   YX=     5.9211   ZX=    -7.8427
   XY=     3.1038   YY=   171.1193   ZY=    56.3142
   XZ=   -12.0410   YZ=    41.9451   ZZ=    23.6911
   Eigenvalues:   -27.9914    12.0010   186.0012
     65  C    Isotropic =    64.1925   Anisotropy =   182.2891
   XX=   -24.9785   YX=    13.3075   ZX=   -22.2393
   XY=    15.2290   YY=   174.6059   ZY=    39.5789
   XZ=   -22.4823   YZ=    38.9349   ZZ=    42.9501
   Eigenvalues:   -34.8481    41.7070   185.7185
     66  C    Isotropic =    65.7825   Anisotropy =   178.4188
   XX=    45.9127   YX=     7.8232   ZX=    -6.2339
   XY=     5.8450   YY=   170.2678   ZY=    54.7881
   XZ=    -4.7057   YZ=    52.9340   ZZ=   -18.8330
   Eigenvalues:   -33.7208    46.3400   184.7283
     67  C    Isotropic =    49.5428   Anisotropy =   193.3059
   XX=   -22.4010   YX=    -0.1610   ZX=    37.7313
   XY=    -8.9654   YY=   168.5589   ZY=    41.6501
   XZ=    45.0239   YZ=    41.0374   ZZ=     2.4704
   Eigenvalues:   -56.9020    27.1169   178.4134
     68  C    Isotropic =    55.6157   Anisotropy =   177.4713
   XX=    38.8710   YX=     6.5205   ZX=    -8.2116
   XY=     2.7408   YY=   158.9413   ZY=    53.8873
   XZ=   -12.3279   YZ=    56.8530   ZZ=   -30.9651
   Eigenvalues:   -47.3646    40.2818   173.9299
     69  C    Isotropic =    65.9962   Anisotropy =   176.9279
   XX=    -3.5357   YX=    -6.4729   ZX=    41.7612
   XY=    -4.8496   YY=   173.7561   ZY=    38.2069
   XZ=    40.6582   YZ=    41.0754   ZZ=    27.7681
   Eigenvalues:   -35.6571    49.6976   183.9481
     70  H    Isotropic =    24.2352   Anisotropy =     3.4695
   XX=    25.0334   YX=    -1.4718   ZX=    -0.3082
   XY=    -1.3050   YY=    21.8847   ZY=    -1.5916
   XZ=    -0.2232   YZ=    -2.0076   ZZ=    25.7875
   Eigenvalues:    20.7313    25.4260    26.5482
     71  H    Isotropic =    24.2385   Anisotropy =     5.2342
   XX=    26.9761   YX=    -0.2119   ZX=     1.0700
   XY=    -1.2967   YY=    22.4231   ZY=    -1.4938
   XZ=     1.5252   YZ=    -2.1888   ZZ=    23.3163
   Eigenvalues:    20.9670    24.0206    27.7280
     72  H    Isotropic =    23.7198   Anisotropy =    11.5350
   XX=    23.2925   YX=    -1.3119   ZX=     5.6536
   XY=    -2.9913   YY=    23.8970   ZY=    -1.7601
   XZ=     7.0641   YZ=    -3.1320   ZZ=    23.9698
   Eigenvalues:    17.2607    22.4887    31.4098
     73  H    Isotropic =    23.1814   Anisotropy =     8.3396
   XX=    28.2679   YX=    -1.1757   ZX=    -1.5091
   XY=    -1.5836   YY=    20.5803   ZY=    -1.4695
   XZ=    -1.8477   YZ=    -2.4330   ZZ=    20.6959
   Eigenvalues:    18.2214    22.5816    28.7411
     74  H    Isotropic =    24.1958   Anisotropy =     6.2898
   XX=    26.3487   YX=    -2.5711   ZX=     1.4538
   XY=    -2.0585   YY=    21.4384   ZY=    -1.5815
   XZ=     1.4057   YZ=    -1.8636   ZZ=    24.8004
   Eigenvalues:    20.2326    23.9658    28.3890
     75  C    Isotropic =    60.7005   Anisotropy =   181.0377
   XX=    38.0125   YX=   -39.1102   ZX=   -63.9877
   XY=   -28.5666   YY=     5.8383   ZY=    44.5519
   XZ=   -53.2145   YZ=    41.2026   ZZ=   138.2507
   Eigenvalues:   -15.8324    16.5416   181.3923
     76  C    Isotropic =    68.5586   Anisotropy =   172.4159
   XX=    59.0200   YX=   -48.2959   ZX=   -48.3652
   XY=   -46.0093   YY=    -1.9477   ZY=    36.3069
   XZ=   -46.1743   YZ=    34.4751   ZZ=   148.6037
   Eigenvalues:   -28.1041    50.2775   183.5026
     77  C    Isotropic =    69.4042   Anisotropy =   168.0268
   XX=    61.8524   YX=    14.0787   ZX=   -63.2418
   XY=    14.9769   YY=    16.2199   ZY=    60.8436
   XZ=   -66.2803   YZ=    57.8240   ZZ=   130.1403
   Eigenvalues:   -29.0521    55.8426   181.4221
     78  C    Isotropic =    63.4204   Anisotropy =   176.0032
   XX=     4.0507   YX=   -16.9200   ZX=   -76.6269
   XY=   -20.1092   YY=    53.5572   ZY=    31.0726
   XZ=   -84.2230   YZ=    27.9754   ZZ=   132.6534
   Eigenvalues:   -34.8016    44.3070   180.7559
     79  C    Isotropic =    55.9882   Anisotropy =   180.9899
   XX=    58.2776   YX=    14.2086   ZX=   -69.9578
   XY=    -5.0035   YY=     6.3716   ZY=    62.7756
   XZ=   -88.6197   YZ=    60.6895   ZZ=   103.3155
   Eigenvalues:   -43.7516    35.0681   176.6482
     80  C    Isotropic =    71.2480   Anisotropy =   166.9499
   XX=    17.2146   YX=   -26.6874   ZX=   -80.7978
   XY=   -29.3495   YY=    66.5028   ZY=    23.7514
   XZ=   -82.3483   YZ=    22.5221   ZZ=   130.0267
   Eigenvalues:   -27.7872    58.9834   182.5479
     81  H    Isotropic =    24.9997   Anisotropy =     4.3608
   XX=    25.4996   YX=    -0.3608   ZX=     2.3918
   XY=     0.1089   YY=    27.3148   ZY=    -1.2422
   XZ=     2.4465   YZ=    -1.2811   ZZ=    22.1848
   Eigenvalues:    20.7377    26.3546    27.9069
     82  H    Isotropic =    25.1191   Anisotropy =     6.7297
   XX=    25.8106   YX=     1.9095   ZX=     1.9718
   XY=     2.3134   YY=    28.4186   ZY=    -1.0508
   XZ=     1.9695   YZ=    -0.5411   ZZ=    21.1280
   Eigenvalues:    20.1325    25.6192    29.6055
     83  H    Isotropic =    24.8504   Anisotropy =    14.9859
   XX=    22.5559   YX=     2.4556   ZX=     1.9437
   XY=     5.3156   YY=    33.4756   ZY=    -3.0045
   XZ=     2.7250   YZ=    -1.4164   ZZ=    18.5197
   Eigenvalues:    16.6237    23.0864    34.8410
     84  H    Isotropic =    24.2324   Anisotropy =     8.3116
   XX=    25.6708   YX=     2.8689   ZX=     0.4999
   XY=     3.6513   YY=    26.0413   ZY=     3.0936
   XZ=     0.7736   YZ=     2.1938   ZZ=    20.9851
   Eigenvalues:    19.7478    23.1759    29.7734
     85  H    Isotropic =    24.7645   Anisotropy =     7.7220
   XX=    23.0938   YX=     0.5095   ZX=     1.0521
   XY=     0.5306   YY=    29.8703   ZY=    -0.0650
   XZ=     0.9866   YZ=     0.2037   ZZ=    21.3294
   Eigenvalues:    20.8609    23.5201    29.9125
     86  C    Isotropic =    55.9460   Anisotropy =   185.2448
   XX=     9.8160   YX=   -56.4784   ZX=   -46.1316
   XY=   -43.6420   YY=   125.3137   ZY=    55.9550
   XZ=   -40.3009   YZ=    64.7070   ZZ=    32.7083
   Eigenvalues:   -23.5472    11.9427   179.4425
     87  C    Isotropic =    67.8050   Anisotropy =   173.9443
   XX=    23.5578   YX=   -42.7446   ZX=   -61.6295
   XY=   -43.5973   YY=   139.7175   ZY=    44.9731
   XZ=   -59.5058   YZ=    47.5052   ZZ=    40.1398
   Eigenvalues:   -29.3171    48.9643   183.7679
     88  C    Isotropic =    67.2053   Anisotropy =   172.7275
   XX=    13.9992   YX=   -75.7102   ZX=    -8.0333
   XY=   -79.0598   YY=   111.7872   ZY=    59.8996
   XZ=    -8.9389   YZ=    54.1762   ZZ=    75.8295
   Eigenvalues:   -32.9762    52.2351   182.3570
     89  C    Isotropic =    58.3091   Anisotropy =   174.5667
   XX=    63.0136   YX=   -45.7050   ZX=   -13.4724
   XY=   -51.9356   YY=    95.9135   ZY=    92.7545
   XZ=   -22.3051   YZ=    80.8020   ZZ=    16.0003
   Eigenvalues:   -40.9793    41.2197   174.6870
     90  C    Isotropic =    63.8025   Anisotropy =   179.9265
   XX=    12.0304   YX=   -72.8970   ZX=    -4.1208
   XY=   -76.2380   YY=   119.0004   ZY=    61.7124
   XZ=    -3.9947   YZ=    61.1130   ZZ=    60.3767
   Eigenvalues:   -33.9429    41.5969   183.7535
     91  C    Isotropic =    65.8905   Anisotropy =   174.3842
[...]
   815. BD*(   1) C  21 - C  23          0.02702     0.61124   
   816. BD*(   2) C  21 - C  23          0.33956     0.05577  825(v),818(v),372(g),813(v)
                                                    792(v),373(g),353(g),393(v)
                                                    363(v),802(r),800(r),897(r)
   817. BD*(   1) C  22 - C  24          0.01831     0.60951   
   818. BD*(   2) C  22 - C  24          0.32953     0.04830  825(v),816(v),381(g),363(g)
                                                    365(g)
   819. BD*(   1) C  22 - H  25          0.01605     0.48857   
   820. BD*(   1) C  23 - C  26          0.01790     0.60781   
   821. BD*(   1) C  23 - H  27          0.01847     0.50235   
   822. BD*(   1) C  24 - C  28          0.01851     0.60268   
   823. BD*(   1) C  24 - H  29          0.01475     0.48623   
   824. BD*(   1) C  26 - C  28          0.01833     0.60510   
   825. BD*(   2) C  26 - C  28          0.33304     0.04827  818(v),816(v),402(g),392(g)
                                                    391(g),800(r)
   826. BD*(   1) C  26 - H  30          0.01480     0.48723   
   827. BD*(   1) C  28 - H  31          0.01491     0.48790   
   845. BD*(   1) N  45 - C  46          0.01645     0.41733   
   846. BD*(   1) N  45 - C  50          0.01460     0.41515   
   847. BD*(   1) C  46 - H  47          0.00776     0.49083   
   848. BD*(   1) C  46 - H  48          0.01417     0.47369   
   849. BD*(   1) C  46 - H  49          0.03065     0.45268   
   850. BD*(   1) C  50 - H  51          0.02826     0.45861   
   851. BD*(   1) C  50 - H  52          0.01220     0.46899   
   852. BD*(   1) C  50 - H  53          0.01094     0.45901   
   861. BD*(   1) C  64 - C  67          0.03255     0.58138   
   862. BD*(   1) C  64 - C  68          0.02690     0.58888   
   863. BD*(   2) C  64 - C  68          0.34638     0.03347  866(v),869(v),585(g),550(g)
                                                    788(v),786(v),798(r),596(v)
                                                    829(r),905(r)
   864. BD*(   1) C  65 - C  66          0.01863     0.59032   
   865. BD*(   1) C  65 - C  69          0.01859     0.59393   
   866. BD*(   2) C  65 - C  69          0.32461     0.03570  863(v),869(v),559(g),595(g)
                                                    558(g)
   867. BD*(   1) C  65 - H  70          0.01480     0.47903   
   868. BD*(   1) C  66 - C  67          0.02155     0.60199   
   869. BD*(   2) C  66 - C  67          0.30932     0.04007  866(v),863(v),798(r),567(g)
                                                    577(g),568(g),578(g),842(r)
   870. BD*(   1) C  66 - H  71          0.01522     0.47929   
   871. BD*(   1) C  67 - H  72          0.01623     0.48595   
   872. BD*(   1) C  68 - C  69          0.01999     0.59635   
   873. BD*(   1) C  68 - H  73          0.01804     0.48893   
   874. BD*(   1) C  69 - H  74          0.01485     0.48038   
   875. BD*(   1) C  75 - C  78          0.02891     0.60661   
   876. BD*(   2) C  75 - C  78          0.37376     0.05127  879(v),886(v),798(r),635(g)
                                                    786(v),609(g),636(g)
   877. BD*(   1) C  75 - C  79          0.02565     0.60230   
   878. BD*(   1) C  76 - C  77          0.01846     0.61455   
   879. BD*(   2) C  76 - C  77          0.33895     0.05649  886(v),876(v),618(g),627(g)
                                                    626(g),617(g)
   880. BD*(   1) C  76 - C  80          0.01876     0.61220   
   881. BD*(   1) C  76 - H  81          0.01497     0.49397   
   882. BD*(   1) C  77 - C  78          0.02043     0.61562   
   883. BD*(   1) C  77 - H  82          0.01503     0.49497   
   884. BD*(   1) C  78 - H  83          0.01801     0.50450   
   885. BD*(   1) C  79 - C  80          0.02033     0.62007   
   886. BD*(   2) C  79 - C  80          0.32008     0.06076  879(v),876(v),654(g),653(g)
                                                    644(g),646(g)
   887. BD*(   1) C  79 - H  84          0.01877     0.49909   
   888. BD*(   1) C  80 - H  85          0.01506     0.49375   
       -------------------------------
              Total Lewis  197.26863  ( 97.1704%)
        Valence non-Lewis    5.29225  (  2.6069%)
        Rydberg non-Lewis    0.45222  (  0.2228%)
       -------------------------------
            Total unit  2  203.01310  (100.0000%)
           Charge unit  2   -0.01310
 
 Molecular unit  3  (Fe)
   145. CR (   1)Fe   3                  2.00000  -238.17430  220(r),219(r),218(g),792(r)
                                                    796(r),783(r),786(r),802(r)
                                                    804(r),810(r),809(r),806(r)
                                                    808(r)
   146. CR (   2)Fe   3                  1.99999   -46.68278  220(r),219(r),792(r),796(r)
   147. CR (   3)Fe   3                  1.99652    -4.87663  220(r),219(r),218(g),792(r)
                                                    796(r),783(r),786(r),802(r)
                                                    804(r),810(r),809(r),806(r)
                                                    808(r),242(g),294(r),321(r)
                                                    267(r),312(r),256(r),276(r)
                                                    285(r),248(r),303(r),330(r)
                                                    247(r),803(r),258(r),807(r)
                                                    805(r),265(r),274(r),801(r)
                                                    257(r),329(r),800(r),284(r)
                                                    795(r),320(r),791(r),328(r)
   148. CR (   4)Fe   3                  1.99999   -25.75047  800(r),219(r)
   149. CR (   5)Fe   3                  1.99909    -2.37185  216(g),800(r),219(r),795(r)
                                                    798(r),258(r),256(r),247(r)
                                                    796(r),792(r),330(r),294(r)
                                                    799(r)
   150. CR (   6)Fe   3                  1.99999   -25.76081  219(r)
   151. CR (   7)Fe   3                  1.99798    -2.38692  219(r),217(g),791(r),795(r)
                                                    798(r),792(r),786(r),800(r)
                                                    796(r),809(r),806(r),267(r)
                                                    802(r),783(r),804(r),248(r)
                                                    321(r),810(r),303(r),808(r)
                                                    801(r),294(r),256(r),805(r)
   152. CR (   8)Fe   3                  1.99999   -25.75652  220(r)
   153. CR (   9)Fe   3                  1.99855    -2.38167  220(r),217(g),791(r),798(r)
                                                    795(r),783(r),800(r),312(r)
                                                    802(r),796(r),808(r),810(r)
                                                    803(r),219(r),285(r),804(r)
                                                    276(r),792(r),807(r),790(r)
                                                    786(r),806(r)
   210. LP (   1)Fe   3                  1.97107    -0.26532  219(r),792(r),796(r),810(r)
                                                    802(r),809(r),786(r),783(r)
                                                    220(r),806(r),808(r),804(r)
                                                    277(r),303(r),267(r),312(r)
                                                    268(r),285(r),321(r),250(r)
                                                    305(r),248(r),314(r),330(r)
                                                    294(r),259(r),276(r),261(r)
                                                    295(r),297(r),286(r),331(r)
                                                    324(r),329(r),253(r),315(r)
                                                    333(r),306(r),788(r),288(r)
                                                    323(r),257(r),274(r),265(r)
                                                    413(r),421(r)
   211. LP (   2)Fe   3                  1.77768    -0.18842  219(r),220(r),791(r),795(r)
                                                    800(r),798(r),810(r),806(r)
                                                    809(r),808(r),278(r),305(r)
                                                    336(r),792(r),314(r),802(r)
                                                    269(r),326(r)
   212. LP (   3)Fe   3                  1.75439    -0.18615  798(r),800(r),795(r),220(r)
                                                    791(r),219(r),786(r),783(r)
                                                    796(r),353(r),804(r),792(r)
                                                    802(r),421(r),256(r),793(r)
                                                    323(r),300(r),313(r),332(r)
                                                    304(r),789(r)
   213. LP*(   4)Fe   3                  0.86493    -0.13270  219(r),220(r),795(r),791(r)
                                                    800(r),798(r),243(g),303(r)
                                                    276(r),267(r),312(r),330(r)
                                                    336(r),321(r),272(r),326(r)
                                                    274(r),309(r),308(r),281(r)
                                                    318(r),265(r),270(r),328(r)
                                                    273(r),305(r),329(r),807(r)
                                                    282(r),317(r)
   214. LP*(   5)Fe   3                  0.85225    -0.13086  220(r),219(r),798(r),800(r)
                                                    791(r),244(g),795(r),294(r)
                                                    256(r),248(r),300(r),291(r)
                                                    285(r),247(r),312(r),255(r)
                                                    264(r),321(r),257(r),326(r)
                                                    318(r),803(r),284(r),801(r)
                                                    303(r),793(r),330(r),253(r)
                                                    258(r)
   215. LP*(   6)Fe   3                  0.23718     0.53274  804(r),805(r),340(r),219(r)
                                                    220(r),803(r),801(r),807(r)
                                                    802(r),810(r),312(r),809(r)
                                                    294(r),276(r),303(r),321(r)
                                                    216(g),330(r),792(r),808(r)
                                                    806(r),305(r),796(r),267(r)
                                                    285(r),284(r),498(r),329(r)
                                                    314(r),256(r),248(r),320(r)
                                                    258(r),860(r),847(r),274(r)
                                                    247(r),291(r),300(r),265(r)
                                                    308(r),286(r),326(r),264(r)
                                                    336(r),255(r),317(r),266(r)
                                                    546(r),603(r),273(r),282(r)
                                                    257(r),293(r),780(r),871(r)
                                                    287(r),328(r),812(r),323(r)
                                                    301(r),270(r),848(r),318(r)
                                                    279(r),295(r),813(r),829(r)
                                                    800(r),798(r),913(r),752(r)
                                                    828(r),799(r),275(r),272(r)
                                                    830(r),309(r),608(r),253(r)
                                                    259(r),310(r),858(r),783(r)
                                                    281(r),811(r),332(r)
   216. LP*(   7)Fe   3                  0.20211     0.29847  800(r),798(r),215(g),219(r)
                                                    795(r),804(r),802(r),250(r)
                                                    806(r),421(r),796(r),220(r)
                                                    259(r),353(r),305(r),339(r)
                                                    337(r),295(r),788(r),256(r)
                                                    264(r),808(r),830(r),413(r)
                                                    255(r),345(r),340(r),342(r)
                                                    810(r),860(r),792(r),286(r)
                                                    328(r),354(r),799(r),283(r)
                                                    314(r),338(r),847(r),797(r)
                                                    422(r),257(r),828(r),341(r)
                                                    809(r),292(r),848(r),791(r)
                                                    786(r),811(r),284(r),336(r)
                                                    301(r)
   217. LP*(   8)Fe   3                  0.20092     0.28892  220(r),791(r),795(r),219(r)
                                                    785(r),788(r),783(r),798(r)
                                                    786(r),800(r),314(r),305(r)
                                                    323(r),808(r),342(r),809(r)
                                                    339(r),806(r),338(r),225(r)
                                                    810(r),268(r),790(r),277(r)
                                                    236(r),226(r),794(r),265(r)
                                                    274(r),341(r),802(r),326(r)
                                                    317(r),332(r),250(r),803(r)
                                                    238(r),308(r),807(r),805(r)
                                                    283(r),273(r),310(r),301(r)
                                                    282(r),780(r),331(r),319(r)
                                                    801(r),421(r)
   218. LP*(   9)Fe   3                  0.11929     0.22708  242(g),220(r),219(r),847(r)
                                                    788(r),860(r),300(r),264(r)
                                                    291(r),783(r),786(r),812(r)
                                                    336(r),294(r),255(r),312(r)
                                                    829(r),326(r),806(r),785(r)
                                                    810(r),276(r),303(r),308(r)
                                                    808(r),317(r),809(r)
   241. RY*(   1)Fe   3                  0.00619     0.57313   
   242. RY*(   2)Fe   3                  0.00089     1.03745   
   243. RY*(   3)Fe   3                  0.00027     1.43956   
   244. RY*(   4)Fe   3                  0.00019     1.47930   
   245. RY*(   5)Fe   3                  0.00007     1.32982   
   246. RY*(   6)Fe   3                  0.00008     1.34286   
       -------------------------------
              Total Lewis   23.49524  ( 90.4372%)
        Valence non-Lewis    2.47669  (  9.5332%)
        Rydberg non-Lewis    0.00770  (  0.0296%)
       -------------------------------
            Total unit  3   25.97962  (100.0000%)
           Charge unit  3    0.02038


 NATURAL LOCALIZED MOLECULAR ORBITAL (NLMO) ANALYSIS:

 Highest occupied NBOs are not at the beginning of the NBO list;
 The NLMO program is not currently set up to handle this.
 Leave Link  607 at Sat Aug 12 03:39:39 2023, MaxMem=  4026531840 cpu:             179.2 elap:               5.8
 (Enter /sw/arch/Centos8/EB_production/2021/software/Gaussian/g16.c01/l9999.exe)
 Unable to Open any file for archive entry.
 1\1\GINC-TCN483\SP\RPBE1PBE\def2SVPP\C52H50Fe1N2P2\ADARSH\12-Aug-2023\
 0\\#p pop=nbo NMR pbe1pbe/def2svpp empiricaldispersion=gd3bj integral=
 grid=ultrafinegrid scf=(xqc,maxconventionalcycles=90) nosymm\\Cisa\\0,
 1\P,0,12.36244,2.47947,8.27348\P,0,12.57234,5.17037,6.00323\Fe,0,13.53
 888,1.99345,5.0469\C,0,14.75648,3.58105,4.67284\C,0,12.04823,0.86029,5
 .82085\C,0,13.37878,4.01274,4.82965\C,0,12.86643,1.41864,6.87857\C,0,1
 4.20929,0.96114,6.68774\C,0,12.60759,3.32542,3.83181\C,0,14.23995,0.13
 392,5.5381\C,0,13.47063,2.50139,3.06972\C,0,12.92203,0.06336,5.01425\C
 ,0,14.78262,2.65919,3.57961\H,0,11.53044,3.37463,3.70545\H,0,13.15949,
 1.82998,2.26967\H,0,15.66662,2.12687,3.2348\H,0,15.06351,1.20703,7.312
 28\H,0,15.12932,-0.33295,5.11518\H,0,12.64399,-0.46307,4.10483\C,0,15.
 9973,4.07434,5.37581\C,0,17.11728,3.03948,5.3549\C,0,17.88234,2.82153,
 4.20149\C,0,17.4416,2.3177,6.50595\C,0,18.9092,1.87937,4.19145\H,0,17.
 68007,3.39977,3.29604\C,0,18.46482,1.37005,6.50239\H,0,16.89187,2.5051
 9,7.43246\C,0,19.19835,1.14171,5.33986\H,0,19.4934,1.72448,3.27958\H,0
 ,18.69532,0.81541,7.41688\H,0,20.0048,0.40291,5.33165\C,0,10.55644,1.0
 4015,5.64767\C,0,10.08567,1.09095,4.19756\C,0,10.21708,0.01383,3.30985
 \C,0,9.39516,2.22294,3.75021\C,0,9.71956,0.0906,2.00916\H,0,10.69991,-
 0.91161,3.62835\C,0,8.89763,2.30733,2.45107\H,0,9.24295,3.06054,4.4376
 1\C,0,9.06655,1.24153,1.56942\H,0,9.83844,-0.76273,1.33488\H,0,8.36912
 ,3.21043,2.13174\H,0,8.67745,1.2991,0.54883\H,0,15.73372,4.21552,6.445
 77\N,0,16.39435,5.38041,4.88073\C,0,16.17455,5.76709,3.51455\H,0,15.19
 172,5.41451,3.16612\H,0,16.16816,6.87149,3.45759\H,0,16.94615,5.4038,2
 .79885\C,0,17.6,5.89672,5.46319\H,0,18.52993,5.43453,5.06584\H,0,17.65
 82,6.98473,5.28309\H,0,17.5936,5.72929,6.55662\H,0,10.32063,2.03582,6.
 07117\N,0,9.80384,0.09471,6.46475\C,0,8.38599,0.34789,6.45059\H,0,7.89
 626,0.08622,5.48556\H,0,7.90337,-0.23694,7.2516\H,0,8.1923,1.41645,6.6
 4948\C,0,10.11374,-1.306,6.35428\H,0,9.6833,-1.83488,7.22365\H,0,9.705
 24,-1.79256,5.43997\H,0,11.20401,-1.46367,6.37797\C,0,10.89827,5.35443
 ,5.27955\C,0,8.30664,5.72797,4.27144\C,0,9.41481,5.90329,3.43981\C,0,1
 0.70163,5.71717,3.93792\C,0,9.7795,5.1676,6.10023\C,0,8.49015,5.35422,
 5.60138\H,0,7.29713,5.87627,3.87742\H,0,9.27613,6.18724,2.39274\H,0,11
 .55994,5.84884,3.27296\H,0,9.93524,4.87101,7.14409\H,0,7.6262,5.20262,
 6.25458\C,0,13.36538,6.80391,5.73539\C,0,14.6187,9.31166,5.57863\C,0,1
 3.36131,9.12092,5.01091\C,0,12.73445,7.87692,5.09491\C,0,14.62489,7.01
 142,6.31793\C,0,15.2439,8.25654,6.24371\H,0,15.10583,10.28929,5.52063\
 H,0,12.85324,9.94733,4.5061\H,0,11.73626,7.76075,4.66896\H,0,15.09758,
 6.2089,6.88881\H,0,16.21727,8.4068,6.71856\C,0,13.74485,2.2803,9.46686
 \C,0,15.87532,2.32364,11.29529\C,0,15.97908,3.01405,10.08551\C,0,14.91
 818,2.99961,9.18578\C,0,13.64185,1.60817,10.68797\C,0,14.70505,1.62997
 ,11.59442\H,0,16.70379,2.33793,12.00911\H,0,16.88683,3.5767,9.84814\H,
 0,14.98445,3.57706,8.25794\H,0,12.72459,1.07829,10.95353\H,0,14.61036,
 1.0997,12.54636\C,0,10.95929,1.55882,8.97803\C,0,8.81912,0.12586,10.06
 511\C,0,10.05139,-0.50066,9.86979\C,0,11.11213,0.20676,9.31429\C,0,9.7
 123,2.16758,9.13879\C,0,8.64585,1.45476,9.68494\H,0,7.98502,-0.43174,1
 0.501\H,0,10.18183,-1.55213,10.14142\H,0,12.06404,-0.3,9.12824\H,0,9.5
 6902,3.20209,8.81413\H,0,7.67215,1.93798,9.80591\\Version=ES64L-G16Rev
 C.01\HF=-4062.7447778\RMSD=4.768e-09\Dipole=-0.2342811,-0.6539439,-0.6
 088395\Quadrupole=6.9439434,-2.1456793,-4.7982641,-19.3256835,-15.2162
 85,-17.493815\PG=C01 [X(C52H50Fe1N2P2)]\\@
 The archive entry for this job was punched.


 AS FAR AS THE LAWS OF MATHEMATICS REFER TO REALITY,
 THEY ARE NOT CERTAIN; AND AS FAR AS THEY ARE CERTAIN,
 THEY DO NOT REFER TO REALITY.

                                         -- ALBERT EINSTEIN
 Job cpu time:       0 days  5 hours 47 minutes 49.4 seconds.
 Elapsed time:       0 days  0 hours 11 minutes 22.0 seconds.
 File lengths (MBytes):  RWF=    704 Int=      0 D2E=      0 Chk=     72 Scr=     32
 Normal termination of Gaussian 16 at Sat Aug 12 03:39:39 2023.
