 Entering Gaussian System, Link 0=g16
 Input=free_ligand_L19_SP.inp
 Output=free_ligand_L19_SP.log
 Initial command:
 /sw/arch/Centos8/EB_production/2021/software/Gaussian/g16.c01/l1.exe "/scratch-local/adarsh.3296418/Gau-3820941.inp" -scrdir="/scratch-local/adarsh.3296418/"
 Entering Link 1 = /sw/arch/Centos8/EB_production/2021/software/Gaussian/g16.c01/l1.exe PID=   3820942.
  
 Copyright (c) 1988-2019, Gaussian, Inc.  All Rights Reserved.
  
 This is part of the Gaussian(R) 16 program.  It is based on
 the Gaussian(R) 09 system (copyright 2009, Gaussian, Inc.),
 the Gaussian(R) 03 system (copyright 2003, Gaussian, Inc.),
 the Gaussian(R) 98 system (copyright 1998, Gaussian, Inc.),
 the Gaussian(R) 94 system (copyright 1995, Gaussian, Inc.),
 the Gaussian 92(TM) system (copyright 1992, Gaussian, Inc.),
 the Gaussian 90(TM) system (copyright 1990, Gaussian, Inc.),
 the Gaussian 88(TM) system (copyright 1988, Gaussian, Inc.),
 the Gaussian 86(TM) system (copyright 1986, Carnegie Mellon
 University), and the Gaussian 82(TM) system (copyright 1983,
 Carnegie Mellon University). Gaussian is a federally registered
 trademark of Gaussian, Inc.
  
 This software contains proprietary and confidential information,
 including trade secrets, belonging to Gaussian, Inc.
  
 This software is provided under written license and may be
 used, copied, transmitted, or stored only in accord with that
 written license.
  
 The following legend is applicable only to US Government
 contracts under FAR:
  
                    RESTRICTED RIGHTS LEGEND
  
 Use, reproduction and disclosure by the US Government is
 subject to restrictions as set forth in subparagraphs (a)
 and (c) of the Commercial Computer Software - Restricted
 Rights clause in FAR 52.227-19.
  
 Gaussian, Inc.
 340 Quinnipiac St., Bldg. 40, Wallingford CT 06492
  
  
 ---------------------------------------------------------------
 Warning -- This program may not be used in any manner that
 competes with the business of Gaussian, Inc. or will provide
 assistance to any competitor of Gaussian, Inc.  The licensee
 of this program is prohibited from giving any competitor of
 Gaussian, Inc. access to this program.  By using this program,
 the user acknowledges that Gaussian, Inc. is engaged in the
 business of creating and licensing software in the field of
 computational chemistry and represents and warrants to the
 licensee that it is not a competitor of Gaussian, Inc. and that
 it will not use this program in any manner prohibited above.
 ---------------------------------------------------------------
  

 Cite this work as:
 Gaussian 16, Revision C.01,
 M. J. Frisch, G. W. Trucks, H. B. Schlegel, G. E. Scuseria, 
 M. A. Robb, J. R. Cheeseman, G. Scalmani, V. Barone, 
 G. A. Petersson, H. Nakatsuji, X. Li, M. Caricato, A. V. Marenich, 
 J. Bloino, B. G. Janesko, R. Gomperts, B. Mennucci, H. P. Hratchian, 
 J. V. Ortiz, A. F. Izmaylov, J. L. Sonnenberg, D. Williams-Young, 
 F. Ding, F. Lipparini, F. Egidi, J. Goings, B. Peng, A. Petrone, 
 T. Henderson, D. Ranasinghe, V. G. Zakrzewski, J. Gao, N. Rega, 
 G. Zheng, W. Liang, M. Hada, M. Ehara, K. Toyota, R. Fukuda, 
 J. Hasegawa, M. Ishida, T. Nakajima, Y. Honda, O. Kitao, H. Nakai, 
 T. Vreven, K. Throssell, J. A. Montgomery, Jr., J. E. Peralta, 
 F. Ogliaro, M. J. Bearpark, J. J. Heyd, E. N. Brothers, K. N. Kudin, 
 V. N. Staroverov, T. A. Keith, R. Kobayashi, J. Normand, 
 K. Raghavachari, A. P. Rendell, J. C. Burant, S. S. Iyengar, 
 J. Tomasi, M. Cossi, J. M. Millam, M. Klene, C. Adamo, R. Cammi, 
 J. W. Ochterski, R. L. Martin, K. Morokuma, O. Farkas, 
 J. B. Foresman, and D. J. Fox, Gaussian, Inc., Wallingford CT, 2019.
 
 ******************************************
 Gaussian 16:  ES64L-G16RevC.01  3-Jul-2019
                12-Aug-2023 
 ******************************************
 %nprocshared=32
 Will use up to   32 processors via shared memory.
 %mem=30GB
 %chk=free_ligand_L19.chk
 ----------------------------------------------------------------------
 #p pop=nbo NMR pbe1pbe/def2svpp empiricaldispersion=gd3bj integral=gri
 d=ultrafinegrid scf=(xqc,maxconventionalcycles=90) nosymm
 ----------------------------------------------------------------------
 1/38=1,172=1/1;
 2/12=2,15=1,17=6,18=5,40=1/2;
 3/5=43,7=202,11=2,25=1,30=1,74=-13,75=-5,124=41/1,2,3,8;
 4//1;
 5/5=2,8=3,13=1,38=5,85=90/2,8;
 8/6=1,10=90,11=11/1;
 10/13=100,31=1,45=16/2;
 6/7=2,8=2,9=2,10=2,28=1,40=1,64=1/1,7;
 99/9=1/99;
 Leave Link    1 at Sat Aug 12 03:21:12 2023, MaxMem=  4026531840 cpu:              36.2 elap:               1.2
 (Enter /sw/arch/Centos8/EB_production/2021/software/Gaussian/g16.c01/l101.exe)
 ----
 Cisa
 ----
 Symbolic Z-matrix:
 Charge =  0 Multiplicity = 1
 C                    -4.58909   0.39691  -3.13802 
 C                    -4.95008   1.76469  -2.974 
 C                    -3.80018   2.56081  -3.23671 
 C                    -2.72436   1.68474  -3.55967 
 C                    -3.21596   0.34806  -3.50435 
 H                    -5.2434   -0.46212  -2.9873 
 H                    -5.92857   2.13665  -2.66982 
 H                    -3.75306   3.64734  -3.17242 
 H                    -1.70546   1.97658  -3.80692 
 H                    -2.65079  -0.55674  -3.72406 
 Fe                   -3.44328   1.27909  -1.67979 
 C                    -3.6123    2.37366   0.03909 
 C                    -2.25645   1.99159  -0.15973 
 C                    -2.19638   0.54783  -0.2172 
 C                    -3.55017   0.08224  -0.04666 
 C                    -4.40694   1.20048   0.1161 
 H                    -3.95539   3.40681   0.07472 
 H                    -3.89513  -0.94633  -0.0783 
 H                    -5.49078   1.15989   0.22588 
 C                    -1.11093   2.97038  -0.10617 
 P                    -0.6988   -0.50279  -0.36065 
 N                    -1.50997   4.30369  -0.54882 
 H                    -0.33305   2.58549  -0.8092 
 C                    -0.50016   2.93451   1.28678 
 C                     0.87212   2.69627   1.49421 
 C                    -1.32733   3.1214    2.4011 
 C                     1.37817   2.70567   2.80353 
 C                    -0.81745   3.12555   3.69408 
 H                    -2.40181   3.25416   2.2476 
 C                     0.54679   2.92381   3.89652 
 H                     2.43891   2.52287   2.98751 
 H                    -1.48656   3.27959   4.54512 
 H                     0.96466   2.92428   4.90706 
 P                     1.95031   2.37823   0.0409 
 C                    -1.3179    5.45702   0.29479 
 H                    -0.25487   5.7587    0.43381 
 H                    -1.84343   6.31028  -0.16725 
 H                    -1.75377   5.30918   1.29248 
 C                    -1.22225   4.56699  -1.93221 
 H                    -1.86255   5.38373  -2.30949 
 H                    -0.16212   4.8663   -2.1141 
 H                    -1.43368   3.67103  -2.53059 
 C                     3.53652   1.72513   0.74999 
 C                     3.3375    0.3228    1.32212 
 C                     4.69201   1.70878  -0.25548 
 H                     3.82196   2.41157   1.56686 
 C                     4.60962  -0.20581   1.97701 
 H                     2.50667   0.30793   2.04519 
 H                     3.04087  -0.34283   0.48916 
 C                     5.97484   1.20603   0.40487 
 H                     4.8611    2.71147  -0.68209 
 H                     4.43154   1.03436  -1.09174 
 C                     5.78707  -0.18178   1.00868 
 H                     4.84603   0.41487   2.86258 
 H                     4.4349   -1.22944   2.35294 
 H                     6.27718   1.91719   1.1972 
 H                     6.79372   1.1979   -0.33528 
 H                     6.71089  -0.50808   1.51637 
 H                     5.60329  -0.90971   0.19478 
 C                     2.28646   4.19402  -0.36451 
 C                     3.07034   4.88623   0.75834 
 C                     2.87564   4.57862  -1.72393 
 H                     1.25811   4.59721  -0.34216 
 C                     3.07729   6.4031    0.57815 
 H                     2.64458   4.63891   1.74411 
 H                     4.11484   4.52192   0.75276 
 C                     2.88494   6.09805  -1.90168 
 H                     2.29866   4.13447  -2.54486 
 H                     3.91138   4.20384  -1.81437 
 C                     3.6377    6.80182  -0.78067 
 H                     2.04229   6.78278   0.67845 
 H                     3.66039   6.8676    1.39217 
 H                     1.83896   6.46096  -1.92584 
 H                     3.32444   6.3482   -2.88299 
 H                     3.59019   7.89636  -0.91353 
 H                     4.70898   6.52682  -0.82987 
 C                    -1.40695  -2.0357   -1.23875 
 C                    -0.42952  -2.95591  -1.98488 
 C                    -2.28527  -2.96192  -0.37584 
 H                    -2.06515  -1.55962  -1.98696 
 C                    -1.19031  -3.92069  -2.89663 
 H                     0.28987  -2.40157  -2.59019 
 H                     0.16217  -3.53686  -1.25484 
 C                    -3.09807  -3.90518  -1.26173 
 H                    -2.96125  -2.41788   0.29603 
 H                    -1.63329  -3.5689    0.27824 
 C                    -2.18997  -4.77216  -2.12488 
 H                    -1.72343  -3.33272  -3.66989 
 H                    -0.47262  -4.56301  -3.43632 
 H                    -3.77234  -3.30703  -1.90545 
 H                    -3.74659  -4.53764  -0.63073 
 H                    -2.7858   -5.39229  -2.81661 
 H                    -1.6377   -5.47436  -1.47176 
 C                    -0.4967   -1.21299   1.35532 
 C                     0.67944  -2.19105   1.41361 
 C                    -0.45428  -0.20279   2.4911 
 H                    -1.4247   -1.7912    1.4965 
 C                     0.77312  -2.86654   2.78086 
 H                     1.61488  -1.6472    1.20376 
 H                     0.58664  -2.96113   0.6303 
 C                    -0.37469  -0.90188   3.8449 
 H                    -1.34494   0.44368   2.4492 
 H                     0.41935   0.4536    2.37649 
 C                     0.81874  -1.84818   3.91488 
 H                     1.66043  -3.52309   2.81026 
 H                    -0.10659  -3.52433   2.91895 
 H                    -0.31804  -0.14316   4.64519 
 H                    -1.3062   -1.47417   4.02036 
 H                     1.75625  -1.26223   3.84403 
 H                     0.84745  -2.36412   4.89025 
 
 ITRead=  0  0  0  0  0  0  0  0  0  0  0  0  0  0  0  0  0  0  0  0
 ITRead=  0  0  0  0  0  0  0  0  0  0  0  0  0  0  0  0  0  0  0  0
 ITRead=  0  0  0  0  0  0  0  0  0  0  0  0  0  0  0  0  0  0  0  0
 ITRead=  0  0  0  0  0  0  0  0  0  0  0  0  0  0  0  0  0  0  0  0
 ITRead=  0  0  0  0  0  0  0  0  0  0  0  0  0  0  0  0  0  0  0  0
 ITRead=  0  0  0  0  0  0  0  0  0  0
 MicOpt= -1 -1 -1 -1 -1 -1 -1 -1 -1 -1 -1 -1 -1 -1 -1 -1 -1 -1 -1 -1
 MicOpt= -1 -1 -1 -1 -1 -1 -1 -1 -1 -1 -1 -1 -1 -1 -1 -1 -1 -1 -1 -1
 MicOpt= -1 -1 -1 -1 -1 -1 -1 -1 -1 -1 -1 -1 -1 -1 -1 -1 -1 -1 -1 -1
 MicOpt= -1 -1 -1 -1 -1 -1 -1 -1 -1 -1 -1 -1 -1 -1 -1 -1 -1 -1 -1 -1
 MicOpt= -1 -1 -1 -1 -1 -1 -1 -1 -1 -1 -1 -1 -1 -1 -1 -1 -1 -1 -1 -1
 MicOpt= -1 -1 -1 -1 -1 -1 -1 -1 -1 -1
 NAtoms=    110 NQM=      110 NQMF=       0 NMMI=      0 NMMIF=      0
                NMic=       0 NMicF=      0.
                    Isotopes and Nuclear Properties:
 (Nuclear quadrupole moments (NQMom) in fm**2, nuclear magnetic moments (NMagM)
  in nuclear magnetons)

  Atom         1           2           3           4           5           6           7           8           9          10
 IAtWgt=          12          12          12          12          12           1           1           1           1           1
 AtmWgt=  12.0000000  12.0000000  12.0000000  12.0000000  12.0000000   1.0078250   1.0078250   1.0078250   1.0078250   1.0078250
 NucSpn=           0           0           0           0           0           1           1           1           1           1
 AtZEff=  -0.0000000  -0.0000000  -0.0000000  -0.0000000  -0.0000000  -0.0000000  -0.0000000  -0.0000000  -0.0000000  -0.0000000
 NQMom=    0.0000000   0.0000000   0.0000000   0.0000000   0.0000000   0.0000000   0.0000000   0.0000000   0.0000000   0.0000000
 NMagM=    0.0000000   0.0000000   0.0000000   0.0000000   0.0000000   2.7928460   2.7928460   2.7928460   2.7928460   2.7928460
 AtZNuc=   6.0000000   6.0000000   6.0000000   6.0000000   6.0000000   1.0000000   1.0000000   1.0000000   1.0000000   1.0000000

  Atom        11          12          13          14          15          16          17          18          19          20
 IAtWgt=          56          12          12          12          12          12           1           1           1          12
 AtmWgt=  55.9349393  12.0000000  12.0000000  12.0000000  12.0000000  12.0000000   1.0078250   1.0078250   1.0078250  12.0000000
 NucSpn=           0           0           0           0           0           0           1           1           1           0
 AtZEff=  -0.0000000  -0.0000000  -0.0000000  -0.0000000  -0.0000000  -0.0000000  -0.0000000  -0.0000000  -0.0000000  -0.0000000
 NQMom=    0.0000000   0.0000000   0.0000000   0.0000000   0.0000000   0.0000000   0.0000000   0.0000000   0.0000000   0.0000000
 NMagM=    0.0000000   0.0000000   0.0000000   0.0000000   0.0000000   0.0000000   2.7928460   2.7928460   2.7928460   0.0000000
 AtZNuc=  26.0000000   6.0000000   6.0000000   6.0000000   6.0000000   6.0000000   1.0000000   1.0000000   1.0000000   6.0000000

  Atom        21          22          23          24          25          26          27          28          29          30
 IAtWgt=          31          14           1          12          12          12          12          12           1          12
 AtmWgt=  30.9737634  14.0030740   1.0078250  12.0000000  12.0000000  12.0000000  12.0000000  12.0000000   1.0078250  12.0000000
 NucSpn=           1           2           1           0           0           0           0           0           1           0
 AtZEff=  -0.0000000  -0.0000000  -0.0000000  -0.0000000  -0.0000000  -0.0000000  -0.0000000  -0.0000000  -0.0000000  -0.0000000
 NQMom=    0.0000000   2.0440000   0.0000000   0.0000000   0.0000000   0.0000000   0.0000000   0.0000000   0.0000000   0.0000000
 NMagM=    1.1316000   0.4037610   2.7928460   0.0000000   0.0000000   0.0000000   0.0000000   0.0000000   2.7928460   0.0000000
 AtZNuc=  15.0000000   7.0000000   1.0000000   6.0000000   6.0000000   6.0000000   6.0000000   6.0000000   1.0000000   6.0000000

  Atom        31          32          33          34          35          36          37          38          39          40
 IAtWgt=           1           1           1          31          12           1           1           1          12           1
 AtmWgt=   1.0078250   1.0078250   1.0078250  30.9737634  12.0000000   1.0078250   1.0078250   1.0078250  12.0000000   1.0078250
 NucSpn=           1           1           1           1           0           1           1           1           0           1
 AtZEff=  -0.0000000  -0.0000000  -0.0000000  -0.0000000  -0.0000000  -0.0000000  -0.0000000  -0.0000000  -0.0000000  -0.0000000
 NQMom=    0.0000000   0.0000000   0.0000000   0.0000000   0.0000000   0.0000000   0.0000000   0.0000000   0.0000000   0.0000000
 NMagM=    2.7928460   2.7928460   2.7928460   1.1316000   0.0000000   2.7928460   2.7928460   2.7928460   0.0000000   2.7928460
 AtZNuc=   1.0000000   1.0000000   1.0000000  15.0000000   6.0000000   1.0000000   1.0000000   1.0000000   6.0000000   1.0000000

  Atom        41          42          43          44          45          46          47          48          49          50
 IAtWgt=           1           1          12          12          12           1          12           1           1          12
 AtmWgt=   1.0078250   1.0078250  12.0000000  12.0000000  12.0000000   1.0078250  12.0000000   1.0078250   1.0078250  12.0000000
 NucSpn=           1           1           0           0           0           1           0           1           1           0
 AtZEff=  -0.0000000  -0.0000000  -0.0000000  -0.0000000  -0.0000000  -0.0000000  -0.0000000  -0.0000000  -0.0000000  -0.0000000
 NQMom=    0.0000000   0.0000000   0.0000000   0.0000000   0.0000000   0.0000000   0.0000000   0.0000000   0.0000000   0.0000000
 NMagM=    2.7928460   2.7928460   0.0000000   0.0000000   0.0000000   2.7928460   0.0000000   2.7928460   2.7928460   0.0000000
 AtZNuc=   1.0000000   1.0000000   6.0000000   6.0000000   6.0000000   1.0000000   6.0000000   1.0000000   1.0000000   6.0000000

  Atom        51          52          53          54          55          56          57          58          59          60
 IAtWgt=           1           1          12           1           1           1           1           1           1          12
 AtmWgt=   1.0078250   1.0078250  12.0000000   1.0078250   1.0078250   1.0078250   1.0078250   1.0078250   1.0078250  12.0000000
 NucSpn=           1           1           0           1           1           1           1           1           1           0
 AtZEff=  -0.0000000  -0.0000000  -0.0000000  -0.0000000  -0.0000000  -0.0000000  -0.0000000  -0.0000000  -0.0000000  -0.0000000
 NQMom=    0.0000000   0.0000000   0.0000000   0.0000000   0.0000000   0.0000000   0.0000000   0.0000000   0.0000000   0.0000000
 NMagM=    2.7928460   2.7928460   0.0000000   2.7928460   2.7928460   2.7928460   2.7928460   2.7928460   2.7928460   0.0000000
 AtZNuc=   1.0000000   1.0000000   6.0000000   1.0000000   1.0000000   1.0000000   1.0000000   1.0000000   1.0000000   6.0000000

  Atom        61          62          63          64          65          66          67          68          69          70
 IAtWgt=          12          12           1          12           1           1          12           1           1          12
 AtmWgt=  12.0000000  12.0000000   1.0078250  12.0000000   1.0078250   1.0078250  12.0000000   1.0078250   1.0078250  12.0000000
 NucSpn=           0           0           1           0           1           1           0           1           1           0
 AtZEff=  -0.0000000  -0.0000000  -0.0000000  -0.0000000  -0.0000000  -0.0000000  -0.0000000  -0.0000000  -0.0000000  -0.0000000
 NQMom=    0.0000000   0.0000000   0.0000000   0.0000000   0.0000000   0.0000000   0.0000000   0.0000000   0.0000000   0.0000000
 NMagM=    0.0000000   0.0000000   2.7928460   0.0000000   2.7928460   2.7928460   0.0000000   2.7928460   2.7928460   0.0000000
 AtZNuc=   6.0000000   6.0000000   1.0000000   6.0000000   1.0000000   1.0000000   6.0000000   1.0000000   1.0000000   6.0000000

  Atom        71          72          73          74          75          76          77          78          79          80
 IAtWgt=           1           1           1           1           1           1          12          12          12           1
 AtmWgt=   1.0078250   1.0078250   1.0078250   1.0078250   1.0078250   1.0078250  12.0000000  12.0000000  12.0000000   1.0078250
 NucSpn=           1           1           1           1           1           1           0           0           0           1
 AtZEff=  -0.0000000  -0.0000000  -0.0000000  -0.0000000  -0.0000000  -0.0000000  -0.0000000  -0.0000000  -0.0000000  -0.0000000
 NQMom=    0.0000000   0.0000000   0.0000000   0.0000000   0.0000000   0.0000000   0.0000000   0.0000000   0.0000000   0.0000000
 NMagM=    2.7928460   2.7928460   2.7928460   2.7928460   2.7928460   2.7928460   0.0000000   0.0000000   0.0000000   2.7928460
 AtZNuc=   1.0000000   1.0000000   1.0000000   1.0000000   1.0000000   1.0000000   6.0000000   6.0000000   6.0000000   1.0000000

  Atom        81          82          83          84          85          86          87          88          89          90
 IAtWgt=          12           1           1          12           1           1          12           1           1           1
 AtmWgt=  12.0000000   1.0078250   1.0078250  12.0000000   1.0078250   1.0078250  12.0000000   1.0078250   1.0078250   1.0078250
 NucSpn=           0           1           1           0           1           1           0           1           1           1
 AtZEff=  -0.0000000  -0.0000000  -0.0000000  -0.0000000  -0.0000000  -0.0000000  -0.0000000  -0.0000000  -0.0000000  -0.0000000
 NQMom=    0.0000000   0.0000000   0.0000000   0.0000000   0.0000000   0.0000000   0.0000000   0.0000000   0.0000000   0.0000000
 NMagM=    0.0000000   2.7928460   2.7928460   0.0000000   2.7928460   2.7928460   0.0000000   2.7928460   2.7928460   2.7928460
 AtZNuc=   6.0000000   1.0000000   1.0000000   6.0000000   1.0000000   1.0000000   6.0000000   1.0000000   1.0000000   1.0000000

  Atom        91          92          93          94          95          96          97          98          99         100
 IAtWgt=           1           1           1          12          12          12           1          12           1           1
 AtmWgt=   1.0078250   1.0078250   1.0078250  12.0000000  12.0000000  12.0000000   1.0078250  12.0000000   1.0078250   1.0078250
 NucSpn=           1           1           1           0           0           0           1           0           1           1
 AtZEff=  -0.0000000  -0.0000000  -0.0000000  -0.0000000  -0.0000000  -0.0000000  -0.0000000  -0.0000000  -0.0000000  -0.0000000
 NQMom=    0.0000000   0.0000000   0.0000000   0.0000000   0.0000000   0.0000000   0.0000000   0.0000000   0.0000000   0.0000000
 NMagM=    2.7928460   2.7928460   2.7928460   0.0000000   0.0000000   0.0000000   2.7928460   0.0000000   2.7928460   2.7928460
 AtZNuc=   1.0000000   1.0000000   1.0000000   6.0000000   6.0000000   6.0000000   1.0000000   6.0000000   1.0000000   1.0000000

  Atom       101         102         103         104         105         106         107         108         109         110
 IAtWgt=          12           1           1          12           1           1           1           1           1           1
 AtmWgt=  12.0000000   1.0078250   1.0078250  12.0000000   1.0078250   1.0078250   1.0078250   1.0078250   1.0078250   1.0078250
 NucSpn=           0           1           1           0           1           1           1           1           1           1
 AtZEff=  -0.0000000  -0.0000000  -0.0000000  -0.0000000  -0.0000000  -0.0000000  -0.0000000  -0.0000000  -0.0000000  -0.0000000
 NQMom=    0.0000000   0.0000000   0.0000000   0.0000000   0.0000000   0.0000000   0.0000000   0.0000000   0.0000000   0.0000000
 NMagM=    0.0000000   2.7928460   2.7928460   0.0000000   2.7928460   2.7928460   2.7928460   2.7928460   2.7928460   2.7928460
 AtZNuc=   6.0000000   1.0000000   1.0000000   6.0000000   1.0000000   1.0000000   1.0000000   1.0000000   1.0000000   1.0000000
 Leave Link  101 at Sat Aug 12 03:21:13 2023, MaxMem=  4026531840 cpu:               5.8 elap:               0.2
 (Enter /sw/arch/Centos8/EB_production/2021/software/Gaussian/g16.c01/l202.exe)
 Symmetry turned off by external request.
 Stoichiometry    C43H63FeNP2
 Framework group  C1[X(C43H63FeNP2)]
 Deg. of freedom   324
 Full point group                 C1      NOp   1
                          Input orientation:                          
 ---------------------------------------------------------------------
 Center     Atomic      Atomic             Coordinates (Angstroms)
 Number     Number       Type             X           Y           Z
 ---------------------------------------------------------------------
      1          6           0       -4.589090    0.396910   -3.138020
      2          6           0       -4.950080    1.764690   -2.974000
      3          6           0       -3.800180    2.560810   -3.236710
      4          6           0       -2.724360    1.684740   -3.559670
      5          6           0       -3.215960    0.348060   -3.504350
      6          1           0       -5.243400   -0.462120   -2.987300
      7          1           0       -5.928570    2.136650   -2.669820
      8          1           0       -3.753060    3.647340   -3.172420
      9          1           0       -1.705460    1.976580   -3.806920
     10          1           0       -2.650790   -0.556740   -3.724060
     11         26           0       -3.443280    1.279090   -1.679790
     12          6           0       -3.612300    2.373660    0.039090
     13          6           0       -2.256450    1.991590   -0.159730
     14          6           0       -2.196380    0.547830   -0.217200
     15          6           0       -3.550170    0.082240   -0.046660
     16          6           0       -4.406940    1.200480    0.116100
     17          1           0       -3.955390    3.406810    0.074720
     18          1           0       -3.895130   -0.946330   -0.078300
     19          1           0       -5.490780    1.159890    0.225880
     20          6           0       -1.110930    2.970380   -0.106170
     21         15           0       -0.698800   -0.502790   -0.360650
     22          7           0       -1.509970    4.303690   -0.548820
     23          1           0       -0.333050    2.585490   -0.809200
     24          6           0       -0.500160    2.934510    1.286780
     25          6           0        0.872120    2.696270    1.494210
     26          6           0       -1.327330    3.121400    2.401100
     27          6           0        1.378170    2.705670    2.803530
     28          6           0       -0.817450    3.125550    3.694080
     29          1           0       -2.401810    3.254160    2.247600
     30          6           0        0.546790    2.923810    3.896520
     31          1           0        2.438910    2.522870    2.987510
     32          1           0       -1.486560    3.279590    4.545120
     33          1           0        0.964660    2.924280    4.907060
     34         15           0        1.950310    2.378230    0.040900
     35          6           0       -1.317900    5.457020    0.294790
     36          1           0       -0.254870    5.758700    0.433810
     37          1           0       -1.843430    6.310280   -0.167250
     38          1           0       -1.753770    5.309180    1.292480
     39          6           0       -1.222250    4.566990   -1.932210
     40          1           0       -1.862550    5.383730   -2.309490
     41          1           0       -0.162120    4.866300   -2.114100
     42          1           0       -1.433680    3.671030   -2.530590
     43          6           0        3.536520    1.725130    0.749990
     44          6           0        3.337500    0.322800    1.322120
     45          6           0        4.692010    1.708780   -0.255480
     46          1           0        3.821960    2.411570    1.566860
     47          6           0        4.609620   -0.205810    1.977010
     48          1           0        2.506670    0.307930    2.045190
     49          1           0        3.040870   -0.342830    0.489160
     50          6           0        5.974840    1.206030    0.404870
     51          1           0        4.861100    2.711470   -0.682090
     52          1           0        4.431540    1.034360   -1.091740
     53          6           0        5.787070   -0.181780    1.008680
     54          1           0        4.846030    0.414870    2.862580
     55          1           0        4.434900   -1.229440    2.352940
     56          1           0        6.277180    1.917190    1.197200
     57          1           0        6.793720    1.197900   -0.335280
     58          1           0        6.710890   -0.508080    1.516370
     59          1           0        5.603290   -0.909710    0.194780
     60          6           0        2.286460    4.194020   -0.364510
     61          6           0        3.070340    4.886230    0.758340
     62          6           0        2.875640    4.578620   -1.723930
     63          1           0        1.258110    4.597210   -0.342160
     64          6           0        3.077290    6.403100    0.578150
     65          1           0        2.644580    4.638910    1.744110
     66          1           0        4.114840    4.521920    0.752760
     67          6           0        2.884940    6.098050   -1.901680
     68          1           0        2.298660    4.134470   -2.544860
     69          1           0        3.911380    4.203840   -1.814370
     70          6           0        3.637700    6.801820   -0.780670
     71          1           0        2.042290    6.782780    0.678450
     72          1           0        3.660390    6.867600    1.392170
     73          1           0        1.838960    6.460960   -1.925840
     74          1           0        3.324440    6.348200   -2.882990
     75          1           0        3.590190    7.896360   -0.913530
     76          1           0        4.708980    6.526820   -0.829870
     77          6           0       -1.406950   -2.035700   -1.238750
     78          6           0       -0.429520   -2.955910   -1.984880
     79          6           0       -2.285270   -2.961920   -0.375840
     80          1           0       -2.065150   -1.559620   -1.986960
     81          6           0       -1.190310   -3.920690   -2.896630
     82          1           0        0.289870   -2.401570   -2.590190
     83          1           0        0.162170   -3.536860   -1.254840
     84          6           0       -3.098070   -3.905180   -1.261730
     85          1           0       -2.961250   -2.417880    0.296030
     86          1           0       -1.633290   -3.568900    0.278240
     87          6           0       -2.189970   -4.772160   -2.124880
     88          1           0       -1.723430   -3.332720   -3.669890
     89          1           0       -0.472620   -4.563010   -3.436320
     90          1           0       -3.772340   -3.307030   -1.905450
     91          1           0       -3.746590   -4.537640   -0.630730
     92          1           0       -2.785800   -5.392290   -2.816610
     93          1           0       -1.637700   -5.474360   -1.471760
     94          6           0       -0.496700   -1.212990    1.355320
     95          6           0        0.679440   -2.191050    1.413610
     96          6           0       -0.454280   -0.202790    2.491100
     97          1           0       -1.424700   -1.791200    1.496500
     98          6           0        0.773120   -2.866540    2.780860
     99          1           0        1.614880   -1.647200    1.203760
    100          1           0        0.586640   -2.961130    0.630300
    101          6           0       -0.374690   -0.901880    3.844900
    102          1           0       -1.344940    0.443680    2.449200
    103          1           0        0.419350    0.453600    2.376490
    104          6           0        0.818740   -1.848180    3.914880
    105          1           0        1.660430   -3.523090    2.810260
    106          1           0       -0.106590   -3.524330    2.918950
    107          1           0       -0.318040   -0.143160    4.645190
    108          1           0       -1.306200   -1.474170    4.020360
    109          1           0        1.756250   -1.262230    3.844030
    110          1           0        0.847450   -2.364120    4.890250
 ---------------------------------------------------------------------
 Rotational constants (GHZ):           0.0764178           0.0546253           0.0423246
 Leave Link  202 at Sat Aug 12 03:21:13 2023, MaxMem=  4026531840 cpu:               0.1 elap:               0.0
 (Enter /sw/arch/Centos8/EB_production/2021/software/Gaussian/g16.c01/l301.exe)
 Standard basis: def2SVPP (5D, 7F)
 Ernie: Thresh=  0.10000D-02 Tol=  0.10000D-05 Strict=F.
   802 basis functions,  1497 primitive gaussians,   850 cartesian basis functions
   192 alpha electrons      192 beta electrons
       nuclear repulsion energy      8078.5492233693 Hartrees.
 IExCor= 1009 DFT=T Ex+Corr=PBE1PBE ExCW=0 ScaHFX=  0.250000
 ScaDFX=  0.750000  0.750000  1.000000  1.000000 ScalE2=  1.000000  1.000000
 IRadAn=      5 IRanWt=     -1 IRanGd=            0 ICorTp=0 IEmpDi=141
 NAtoms=  110 NActive=  110 NUniq=  110 SFac= 1.00D+00 NAtFMM=   60 NAOKFM=T Big=T
 Integral buffers will be    131072 words long.
 Raffenetti 2 integral format.
 Two-electron integral symmetry is turned off.
 R6Disp:  Grimme-D3(BJ) Dispersion energy=       -0.1680425121 Hartrees.
 Nuclear repulsion after empirical dispersion term =     8078.3811808573 Hartrees.
 Leave Link  301 at Sat Aug 12 03:21:13 2023, MaxMem=  4026531840 cpu:               1.2 elap:               0.1
 (Enter /sw/arch/Centos8/EB_production/2021/software/Gaussian/g16.c01/l302.exe)
 NPDir=0 NMtPBC=     1 NCelOv=     1 NCel=       1 NClECP=     1 NCelD=      1
         NCelK=      1 NCelE2=     1 NClLst=     1 CellRange=     0.0.
 One-electron integrals computed using PRISM.
   1 Symmetry operations used in ECPInt.
 ECPInt:  NShTT=   86736 NPrTT=  357437 LenC2=   74799 LenP2D=  190213.
 LDataN:  DoStor=T MaxTD1= 4 Len=   56
 NBasis=   802 RedAO= T EigKep=  2.21D-04  NBF=   802
 NBsUse=   802 1.00D-06 EigRej= -1.00D+00 NBFU=   802
 Precomputing XC quadrature grid using
 IXCGrd= 4 IRadAn=           5 IRanWt=          -1 IRanGd=           0 AccXCQ= 0.00D+00.
 Generated NRdTot=       0 NPtTot=           0 NUsed=           0 NTot=          32
 NSgBfM=   801   800   801   801   801 MxSgAt=   110 MxSgA2=   110.
 Leave Link  302 at Sat Aug 12 03:21:15 2023, MaxMem=  4026531840 cpu:              59.7 elap:               1.9
 (Enter /sw/arch/Centos8/EB_production/2021/software/Gaussian/g16.c01/l303.exe)
 DipDrv:  MaxL=1.
 Leave Link  303 at Sat Aug 12 03:21:15 2023, MaxMem=  4026531840 cpu:               5.2 elap:               0.2
 (Enter /sw/arch/Centos8/EB_production/2021/software/Gaussian/g16.c01/l308.exe)
 Leave Link  308 at Sat Aug 12 03:21:15 2023, MaxMem=  4026531840 cpu:              10.5 elap:               0.4
 (Enter /sw/arch/Centos8/EB_production/2021/software/Gaussian/g16.c01/l401.exe)
 ExpMin= 3.37D-02 ExpMax= 6.09D+04 ExpMxC= 9.15D+03 IAcc=3 IRadAn=         5 AccDes= 0.00D+00
 Harris functional with IExCor= 1009 and IRadAn=       5 diagonalized for initial guess.
 HarFok:  IExCor= 1009 AccDes= 0.00D+00 IRadAn=         5 IDoV= 1 UseB2=F ITyADJ=14
 ICtDFT=  3500011 ScaDFX=  1.000000  1.000000  1.000000  1.000000
 FoFCou: FMM=F IPFlag=           0 FMFlag=      100000 FMFlg1=        2001
         NFxFlg=           0 DoJE=T BraDBF=F KetDBF=T FulRan=T
         wScrn=  0.000000 ICntrl=       500 IOpCl=  0 I1Cent=   200000004 NGrid=           0
         NMat0=    1 NMatS0=      1 NMatT0=    0 NMatD0=    1 NMtDS0=    0 NMtDT0=    0
 Symmetry not used in FoFCou.
 Harris En= -3674.07641031624    
 JPrj=0 DoOrth=F DoCkMO=F.
 Leave Link  401 at Sat Aug 12 03:21:20 2023, MaxMem=  4026531840 cpu:             156.1 elap:               5.0
 (Enter /sw/arch/Centos8/EB_production/2021/software/Gaussian/g16.c01/l502.exe)
 Two-electron integral symmetry not used.
 Closed shell SCF:
 Using DIIS extrapolation, IDIIS=  1040.
 NGot=  4026531840 LenX=  4025047964 LenY=  4024324614
 Requested convergence on RMS density matrix=1.00D-08 within  90 cycles.
 Requested convergence on MAX density matrix=1.00D-06.
 Requested convergence on             energy=1.00D-06.
 No special actions if energy rises.
 Fock matrices will be formed incrementally for  20 cycles.

 Cycle   1  Pass 1  IDiag  1:
 FoFJK:  IHMeth= 1 ICntrl=       0 DoSepK=F KAlg= 0 I1Cent=           0 FoldK=F
 IRaf= 990000000 NMat=       1 IRICut=       1 DoRegI=T DoRafI=F ISym2E= 0 IDoP0=0 IntGTp=1.
 FoFCou: FMM=T IPFlag=           0 FMFlag=      100000 FMFlg1=        2001
         NFxFlg=           0 DoJE=F BraDBF=F KetDBF=F FulRan=T
         wScrn=  0.000000 ICntrl=         0 IOpCl=  0 I1Cent=           0 NGrid=           0
         NMat0=    1 NMatS0=      1 NMatT0=    0 NMatD0=    1 NMtDS0=    0 NMtDT0=    0
 Symmetry not used in FoFCou.
 FMM levels:  10  Number of levels for PrismC:   9
 E= -3672.37950257175    
 DIIS: error= 1.87D-02 at cycle   1 NSaved=   1.
 NSaved= 1 IEnMin= 1 EnMin= -3672.37950257175     IErMin= 1 ErrMin= 1.87D-02
 ErrMax= 1.87D-02  0.00D+00 EMaxC= 1.00D-01 BMatC= 1.13D+00 BMatP= 1.13D+00
 IDIUse=3 WtCom= 8.13D-01 WtEn= 1.87D-01
 Coeff-Com:  0.100D+01
 Coeff-En:   0.100D+01
 Coeff:      0.100D+01
 Gap=     0.233 Goal=   None    Shift=    0.000
 GapD=    0.233 DampG=1.000 DampE=0.250 DampFc=0.2500 IDamp=-1.
 Damping current iteration by 2.50D-01
 RMSDP=3.96D-03 MaxDP=1.86D-01              OVMax= 1.76D-01

 Cycle   2  Pass 1  IDiag  1:
 RMSU=  9.44D-04    CP:  9.80D-01
 E= -3672.80590446820     Delta-E=       -0.426401896446 Rises=F Damp=T
 DIIS: error= 8.99D-03 at cycle   2 NSaved=   2.
 NSaved= 2 IEnMin= 2 EnMin= -3672.80590446820     IErMin= 2 ErrMin= 8.99D-03
 ErrMax= 8.99D-03  0.00D+00 EMaxC= 1.00D-01 BMatC= 2.78D-01 BMatP= 1.13D+00
 IDIUse=3 WtCom= 9.10D-01 WtEn= 8.99D-02
 Coeff-Com: -0.535D+00 0.154D+01
 Coeff-En:   0.000D+00 0.100D+01
 Coeff:     -0.487D+00 0.149D+01
 Gap=     0.307 Goal=   None    Shift=    0.000
 RMSDP=3.98D-03 MaxDP=4.69D-01 DE=-4.26D-01 OVMax= 5.14D-01

 Cycle   3  Pass 1  IDiag  1:
 RMSU=  3.95D-03    CP:  9.75D-01  1.48D+00
 E= -3671.23790292203     Delta-E=        1.568001546166 Rises=F Damp=F
 DIIS: error= 1.53D-01 at cycle   3 NSaved=   3.
 NSaved= 3 IEnMin= 2 EnMin= -3672.80590446820     IErMin= 2 ErrMin= 8.99D-03
 ErrMax= 1.53D-01  0.00D+00 EMaxC= 1.00D-01 BMatC= 3.63D+00 BMatP= 2.78D-01
 IDIUse=2 WtCom= 0.00D+00 WtEn= 1.00D+00
 Coeff-En:   0.000D+00 0.807D+00 0.193D+00
 Coeff:      0.000D+00 0.807D+00 0.193D+00
 Gap=     0.354 Goal=   None    Shift=    0.000
 RMSDP=5.06D-03 MaxDP=5.11D-01 DE= 1.57D+00 OVMax= 3.62D-01

 Cycle   4  Pass 1  IDiag  1:
 RMSU=  1.39D-03    CP:  9.24D-01  2.76D+00 -1.79D-01
 E= -3671.75180160968     Delta-E=       -0.513898687650 Rises=F Damp=F
 DIIS: error= 9.54D-02 at cycle   4 NSaved=   4.
 NSaved= 4 IEnMin= 2 EnMin= -3672.80590446820     IErMin= 2 ErrMin= 8.99D-03
 ErrMax= 9.54D-02  0.00D+00 EMaxC= 1.00D-01 BMatC= 3.04D+00 BMatP= 2.78D-01
 IDIUse=2 WtCom= 0.00D+00 WtEn= 1.00D+00
 EnCoef did     2 forward-backward iterations
 Coeff-En:   0.629D-01 0.000D+00 0.430D+00 0.507D+00
 Coeff:      0.629D-01 0.000D+00 0.430D+00 0.507D+00
 Gap=     0.138 Goal=   None    Shift=    0.000
 RMSDP=2.14D-03 MaxDP=2.54D-01 DE=-5.14D-01 OVMax= 2.85D-01

 Cycle   5  Pass 1  IDiag  1:
 RMSU=  8.75D-04    CP:  9.62D-01  1.48D+00  1.26D-01  4.42D-01
 E= -3673.53362387643     Delta-E=       -1.781822266747 Rises=F Damp=F
 DIIS: error= 6.79D-03 at cycle   5 NSaved=   5.
 NSaved= 5 IEnMin= 5 EnMin= -3673.53362387643     IErMin= 5 ErrMin= 6.79D-03
 ErrMax= 6.79D-03  0.00D+00 EMaxC= 1.00D-01 BMatC= 7.10D-02 BMatP= 2.78D-01
 IDIUse=3 WtCom= 9.32D-01 WtEn= 6.79D-02
 Coeff-Com: -0.583D+00 0.798D+00 0.521D-01-0.783D-01 0.811D+00
 Coeff-En:   0.000D+00 0.000D+00 0.000D+00 0.000D+00 0.100D+01
 Coeff:     -0.544D+00 0.744D+00 0.486D-01-0.730D-01 0.824D+00
 Gap=     0.195 Goal=   None    Shift=    0.000
 RMSDP=6.01D-04 MaxDP=6.27D-02 DE=-1.78D+00 OVMax= 2.85D-02

 Cycle   6  Pass 1  IDiag  1:
 RMSU=  2.89D-04    CP:  9.55D-01  1.93D+00  1.55D-01  2.51D-01  9.69D-01
 E= -3673.60615825400     Delta-E=       -0.072534377576 Rises=F Damp=F
 DIIS: error= 2.37D-03 at cycle   6 NSaved=   6.
 NSaved= 6 IEnMin= 6 EnMin= -3673.60615825400     IErMin= 6 ErrMin= 2.37D-03
 ErrMax= 2.37D-03  0.00D+00 EMaxC= 1.00D-01 BMatC= 4.07D-03 BMatP= 7.10D-02
 IDIUse=3 WtCom= 9.76D-01 WtEn= 2.37D-02
 Coeff-Com: -0.291D+00 0.392D+00 0.237D-01-0.515D-01 0.428D+00 0.499D+00
 Coeff-En:   0.000D+00 0.000D+00 0.000D+00 0.000D+00 0.000D+00 0.100D+01
 Coeff:     -0.285D+00 0.383D+00 0.231D-01-0.502D-01 0.418D+00 0.511D+00
 Gap=     0.180 Goal=   None    Shift=    0.000
 RMSDP=1.75D-04 MaxDP=1.45D-02 DE=-7.25D-02 OVMax= 1.10D-02

 Cycle   7  Pass 1  IDiag  1:
 RMSU=  1.02D-04    CP:  9.56D-01  1.89D+00  1.42D-01  2.66D-01  9.90D-01
                    CP:  5.74D-01
 E= -3673.60886131820     Delta-E=       -0.002703064198 Rises=F Damp=F
 DIIS: error= 1.70D-03 at cycle   7 NSaved=   7.
 NSaved= 7 IEnMin= 7 EnMin= -3673.60886131820     IErMin= 7 ErrMin= 1.70D-03
 ErrMax= 1.70D-03  0.00D+00 EMaxC= 1.00D-01 BMatC= 1.23D-03 BMatP= 4.07D-03
 IDIUse=3 WtCom= 9.83D-01 WtEn= 1.70D-02
 Coeff-Com: -0.564D-01 0.702D-01 0.739D-02-0.209D-01 0.899D-01 0.293D+00
 Coeff-Com:  0.616D+00
 Coeff-En:   0.000D+00 0.000D+00 0.000D+00 0.000D+00 0.000D+00 0.100D+00
 Coeff-En:   0.900D+00
 Coeff:     -0.555D-01 0.691D-01 0.727D-02-0.206D-01 0.883D-01 0.290D+00
 Coeff:      0.621D+00
 Gap=     0.180 Goal=   None    Shift=    0.000
 RMSDP=7.28D-05 MaxDP=6.32D-03 DE=-2.70D-03 OVMax= 6.53D-03

 Cycle   8  Pass 1  IDiag  1:
 RMSU=  5.01D-05    CP:  9.56D-01  1.90D+00  1.42D-01  2.61D-01  1.00D+00
                    CP:  6.82D-01  5.99D-01
 E= -3673.60961228686     Delta-E=       -0.000750968664 Rises=F Damp=F
 DIIS: error= 7.85D-04 at cycle   8 NSaved=   8.
 NSaved= 8 IEnMin= 8 EnMin= -3673.60961228686     IErMin= 8 ErrMin= 7.85D-04
 ErrMax= 7.85D-04  0.00D+00 EMaxC= 1.00D-01 BMatC= 2.93D-04 BMatP= 1.23D-03
 IDIUse=3 WtCom= 9.92D-01 WtEn= 7.85D-03
 Coeff-Com:  0.272D-01-0.408D-01 0.135D-02-0.499D-02-0.368D-01 0.798D-01
 Coeff-Com:  0.408D+00 0.567D+00
 Coeff-En:   0.000D+00 0.000D+00 0.000D+00 0.000D+00 0.000D+00 0.000D+00
 Coeff-En:   0.000D+00 0.100D+01
 Coeff:      0.270D-01-0.404D-01 0.134D-02-0.495D-02-0.365D-01 0.791D-01
 Coeff:      0.405D+00 0.570D+00
 Gap=     0.180 Goal=   None    Shift=    0.000
 RMSDP=2.88D-05 MaxDP=1.95D-03 DE=-7.51D-04 OVMax= 3.31D-03

 Cycle   9  Pass 1  IDiag  1:
 RMSU=  1.69D-05    CP:  9.56D-01  1.90D+00  1.43D-01  2.60D-01  1.00D+00
                    CP:  6.82D-01  7.37D-01  6.47D-01
 E= -3673.60984694193     Delta-E=       -0.000234655066 Rises=F Damp=F
 DIIS: error= 2.44D-04 at cycle   9 NSaved=   9.
 NSaved= 9 IEnMin= 9 EnMin= -3673.60984694193     IErMin= 9 ErrMin= 2.44D-04
 ErrMax= 2.44D-04  0.00D+00 EMaxC= 1.00D-01 BMatC= 2.24D-05 BMatP= 2.93D-04
 IDIUse=3 WtCom= 9.98D-01 WtEn= 2.44D-03
 Coeff-Com:  0.175D-01-0.242D-01 0.243D-03-0.650D-03-0.261D-01-0.388D-02
 Coeff-Com:  0.859D-01 0.234D+00 0.717D+00
 Coeff-En:   0.000D+00 0.000D+00 0.000D+00 0.000D+00 0.000D+00 0.000D+00
 Coeff-En:   0.000D+00 0.000D+00 0.100D+01
 Coeff:      0.174D-01-0.242D-01 0.243D-03-0.648D-03-0.260D-01-0.387D-02
 Coeff:      0.857D-01 0.234D+00 0.718D+00
 Gap=     0.179 Goal=   None    Shift=    0.000
 RMSDP=7.18D-06 MaxDP=7.62D-04 DE=-2.35D-04 OVMax= 1.24D-03

 Cycle  10  Pass 1  IDiag  1:
 RMSU=  6.28D-06    CP:  9.56D-01  1.90D+00  1.43D-01  2.59D-01  1.01D+00
                    CP:  6.85D-01  7.37D-01  6.99D-01  9.23D-01
 E= -3673.60986284338     Delta-E=       -0.000015901445 Rises=F Damp=F
 DIIS: error= 2.90D-05 at cycle  10 NSaved=  10.
 NSaved=10 IEnMin=10 EnMin= -3673.60986284338     IErMin=10 ErrMin= 2.90D-05
 ErrMax= 2.90D-05  0.00D+00 EMaxC= 1.00D-01 BMatC= 1.55D-06 BMatP= 2.24D-05
 IDIUse=1 WtCom= 1.00D+00 WtEn= 0.00D+00
 Coeff-Com:  0.600D-02-0.781D-02 0.643D-05 0.595D-04-0.963D-02-0.108D-01
 Coeff-Com: -0.777D-03 0.607D-01 0.412D+00 0.550D+00
 Coeff:      0.600D-02-0.781D-02 0.643D-05 0.595D-04-0.963D-02-0.108D-01
 Coeff:     -0.777D-03 0.607D-01 0.412D+00 0.550D+00
 Gap=     0.180 Goal=   None    Shift=    0.000
 RMSDP=3.11D-06 MaxDP=2.25D-04 DE=-1.59D-05 OVMax= 3.04D-04

 Cycle  11  Pass 1  IDiag  1:
 RMSU=  1.70D-06    CP:  9.56D-01  1.90D+00  1.43D-01  2.59D-01  1.01D+00
                    CP:  6.86D-01  7.37D-01  7.09D-01  9.75D-01  6.46D-01
 E= -3673.60986433766     Delta-E=       -0.000001494285 Rises=F Damp=F
 DIIS: error= 2.45D-05 at cycle  11 NSaved=  11.
 NSaved=11 IEnMin=11 EnMin= -3673.60986433766     IErMin=11 ErrMin= 2.45D-05
 ErrMax= 2.45D-05  0.00D+00 EMaxC= 1.00D-01 BMatC= 2.33D-07 BMatP= 1.55D-06
 IDIUse=1 WtCom= 1.00D+00 WtEn= 0.00D+00
 Coeff-Com:  0.162D-02-0.198D-02-0.381D-04 0.760D-04-0.264D-02-0.469D-02
 Coeff-Com: -0.651D-02 0.142D-01 0.169D+00 0.299D+00 0.532D+00
 Coeff:      0.162D-02-0.198D-02-0.381D-04 0.760D-04-0.264D-02-0.469D-02
 Coeff:     -0.651D-02 0.142D-01 0.169D+00 0.299D+00 0.532D+00
 Gap=     0.180 Goal=   None    Shift=    0.000
 RMSDP=8.81D-07 MaxDP=9.21D-05 DE=-1.49D-06 OVMax= 8.61D-05

 Cycle  12  Pass 1  IDiag  1:
 RMSU=  6.38D-07    CP:  9.56D-01  1.90D+00  1.43D-01  2.59D-01  1.01D+00
                    CP:  6.86D-01  7.39D-01  7.07D-01  9.76D-01  6.75D-01
                    CP:  6.96D-01
 E= -3673.60986451769     Delta-E=       -0.000000180027 Rises=F Damp=F
 DIIS: error= 1.26D-05 at cycle  12 NSaved=  12.
 NSaved=12 IEnMin=12 EnMin= -3673.60986451769     IErMin=12 ErrMin= 1.26D-05
 ErrMax= 1.26D-05  0.00D+00 EMaxC= 1.00D-01 BMatC= 4.47D-08 BMatP= 2.33D-07
 IDIUse=1 WtCom= 1.00D+00 WtEn= 0.00D+00
 Coeff-Com:  0.189D-03-0.197D-03-0.334D-04 0.384D-04-0.245D-03-0.873D-03
 Coeff-Com: -0.227D-02 0.227D-02 0.465D-01 0.946D-01 0.252D+00 0.608D+00
 Coeff:      0.189D-03-0.197D-03-0.334D-04 0.384D-04-0.245D-03-0.873D-03
 Coeff:     -0.227D-02 0.227D-02 0.465D-01 0.946D-01 0.252D+00 0.608D+00
 Gap=     0.180 Goal=   None    Shift=    0.000
 RMSDP=4.36D-07 MaxDP=4.69D-05 DE=-1.80D-07 OVMax= 5.35D-05

 Cycle  13  Pass 1  IDiag  1:
 RMSU=  2.73D-07    CP:  9.56D-01  1.90D+00  1.43D-01  2.59D-01  1.01D+00
                    CP:  6.86D-01  7.38D-01  7.08D-01  9.81D-01  6.80D-01
                    CP:  7.91D-01  9.13D-01
 E= -3673.60986454998     Delta-E=       -0.000000032287 Rises=F Damp=F
 DIIS: error= 5.71D-06 at cycle  13 NSaved=  13.
 NSaved=13 IEnMin=13 EnMin= -3673.60986454998     IErMin=13 ErrMin= 5.71D-06
 ErrMax= 5.71D-06  0.00D+00 EMaxC= 1.00D-01 BMatC= 8.11D-09 BMatP= 4.47D-08
 IDIUse=1 WtCom= 1.00D+00 WtEn= 0.00D+00
 Coeff-Com: -0.150D-03 0.196D-03-0.178D-04 0.109D-04 0.286D-03 0.400D-03
 Coeff-Com:  0.337D-03-0.420D-03-0.258D-02-0.318D-02 0.199D-01 0.245D+00
 Coeff-Com:  0.740D+00
 Coeff:     -0.150D-03 0.196D-03-0.178D-04 0.109D-04 0.286D-03 0.400D-03
 Coeff:      0.337D-03-0.420D-03-0.258D-02-0.318D-02 0.199D-01 0.245D+00
 Coeff:      0.740D+00
 Gap=     0.180 Goal=   None    Shift=    0.000
 RMSDP=2.83D-07 MaxDP=2.33D-05 DE=-3.23D-08 OVMax= 4.84D-05

 Cycle  14  Pass 1  IDiag  1:
 RMSU=  1.50D-07    CP:  9.56D-01  1.90D+00  1.43D-01  2.59D-01  1.01D+00
                    CP:  6.85D-01  7.38D-01  7.08D-01  9.84D-01  6.89D-01
                    CP:  8.20D-01  1.09D+00  1.19D+00
 E= -3673.60986455916     Delta-E=       -0.000000009182 Rises=F Damp=F
 DIIS: error= 1.88D-06 at cycle  14 NSaved=  14.
 NSaved=14 IEnMin=14 EnMin= -3673.60986455916     IErMin=14 ErrMin= 1.88D-06
 ErrMax= 1.88D-06  0.00D+00 EMaxC= 1.00D-01 BMatC= 1.04D-09 BMatP= 8.11D-09
 IDIUse=1 WtCom= 1.00D+00 WtEn= 0.00D+00
 Coeff-Com: -0.103D-03 0.123D-03-0.208D-05-0.358D-05 0.145D-03 0.355D-03
 Coeff-Com:  0.758D-03-0.705D-03-0.136D-01-0.299D-01-0.768D-01-0.117D+00
 Coeff-Com:  0.313D+00 0.923D+00
 Coeff:     -0.103D-03 0.123D-03-0.208D-05-0.358D-05 0.145D-03 0.355D-03
 Coeff:      0.758D-03-0.705D-03-0.136D-01-0.299D-01-0.768D-01-0.117D+00
 Coeff:      0.313D+00 0.923D+00
 Gap=     0.180 Goal=   None    Shift=    0.000
 RMSDP=2.14D-07 MaxDP=2.53D-05 DE=-9.18D-09 OVMax= 5.08D-05

 Cycle  15  Pass 1  IDiag  1:
 RMSU=  8.08D-08    CP:  9.56D-01  1.90D+00  1.43D-01  2.59D-01  1.01D+00
                    CP:  6.85D-01  7.38D-01  7.08D-01  9.86D-01  6.93D-01
                    CP:  8.59D-01  1.25D+00  1.64D+00  1.26D+00
 E= -3673.60986456278     Delta-E=       -0.000000003618 Rises=F Damp=F
 DIIS: error= 7.33D-07 at cycle  15 NSaved=  15.
 NSaved=15 IEnMin=15 EnMin= -3673.60986456278     IErMin=15 ErrMin= 7.33D-07
 ErrMax= 7.33D-07  0.00D+00 EMaxC= 1.00D-01 BMatC= 2.66D-10 BMatP= 1.04D-09
 IDIUse=1 WtCom= 1.00D+00 WtEn= 0.00D+00
 Coeff-Com: -0.200D-04 0.193D-04 0.394D-05-0.511D-05 0.433D-05 0.824D-04
 Coeff-Com:  0.269D-03-0.436D-03-0.740D-02-0.170D-01-0.505D-01-0.135D+00
 Coeff-Com: -0.247D-01 0.543D+00 0.692D+00
 Coeff:     -0.200D-04 0.193D-04 0.394D-05-0.511D-05 0.433D-05 0.824D-04
 Coeff:      0.269D-03-0.436D-03-0.740D-02-0.170D-01-0.505D-01-0.135D+00
 Coeff:     -0.247D-01 0.543D+00 0.692D+00
 Gap=     0.180 Goal=   None    Shift=    0.000
 RMSDP=1.09D-07 MaxDP=1.36D-05 DE=-3.62D-09 OVMax= 2.74D-05

 Cycle  16  Pass 1  IDiag  1:
 RMSU=  4.06D-08    CP:  9.56D-01  1.90D+00  1.43D-01  2.59D-01  1.01D+00
                    CP:  6.85D-01  7.38D-01  7.08D-01  9.87D-01  6.94D-01
                    CP:  8.76D-01  1.33D+00  1.85D+00  1.59D+00  1.02D+00
 E= -3673.60986456363     Delta-E=       -0.000000000849 Rises=F Damp=F
 DIIS: error= 8.66D-07 at cycle  16 NSaved=  16.
 NSaved=16 IEnMin=16 EnMin= -3673.60986456363     IErMin=15 ErrMin= 7.33D-07
 ErrMax= 8.66D-07  0.00D+00 EMaxC= 1.00D-01 BMatC= 1.79D-10 BMatP= 2.66D-10
 IDIUse=1 WtCom= 1.00D+00 WtEn= 0.00D+00
 Coeff-Com:  0.563D-05-0.891D-05 0.407D-05-0.301D-05-0.194D-04-0.297D-04
 Coeff-Com: -0.567D-04-0.204D-03-0.151D-02-0.290D-02-0.854D-02-0.390D-01
 Coeff-Com: -0.822D-01 0.582D-01 0.364D+00 0.712D+00
 Coeff:      0.563D-05-0.891D-05 0.407D-05-0.301D-05-0.194D-04-0.297D-04
 Coeff:     -0.567D-04-0.204D-03-0.151D-02-0.290D-02-0.854D-02-0.390D-01
 Coeff:     -0.822D-01 0.582D-01 0.364D+00 0.712D+00
 Gap=     0.180 Goal=   None    Shift=    0.000
 RMSDP=4.93D-08 MaxDP=6.26D-06 DE=-8.49D-10 OVMax= 1.26D-05

 Cycle  17  Pass 1  IDiag  1:
 RMSU=  1.59D-08    CP:  9.56D-01  1.90D+00  1.43D-01  2.59D-01  1.01D+00
                    CP:  6.85D-01  7.38D-01  7.08D-01  9.87D-01  6.95D-01
                    CP:  8.84D-01  1.37D+00  1.95D+00  1.72D+00  1.23D+00
                    CP:  1.03D+00
 E= -3673.60986456379     Delta-E=       -0.000000000166 Rises=F Damp=F
 DIIS: error= 4.93D-07 at cycle  17 NSaved=  17.
 NSaved=17 IEnMin=17 EnMin= -3673.60986456379     IErMin=17 ErrMin= 4.93D-07
 ErrMax= 4.93D-07  0.00D+00 EMaxC= 1.00D-01 BMatC= 5.21D-11 BMatP= 1.79D-10
 IDIUse=1 WtCom= 1.00D+00 WtEn= 0.00D+00
 Coeff-Com: -0.272D-06 0.477D-06 0.200D-05-0.114D-05 0.339D-05-0.974D-05
 Coeff-Com: -0.501D-04-0.724D-04 0.636D-04 0.125D-02 0.661D-02 0.158D-01
 Coeff-Com: -0.231D-01-0.984D-01-0.196D-01 0.290D+00 0.828D+00
 Coeff:     -0.272D-06 0.477D-06 0.200D-05-0.114D-05 0.339D-05-0.974D-05
 Coeff:     -0.501D-04-0.724D-04 0.636D-04 0.125D-02 0.661D-02 0.158D-01
 Coeff:     -0.231D-01-0.984D-01-0.196D-01 0.290D+00 0.828D+00
 Gap=     0.180 Goal=   None    Shift=    0.000
 RMSDP=2.79D-08 MaxDP=3.26D-06 DE=-1.66D-10 OVMax= 6.61D-06

 Cycle  18  Pass 1  IDiag  1:
 RMSU=  9.00D-09    CP:  9.56D-01  1.90D+00  1.43D-01  2.59D-01  1.01D+00
                    CP:  6.85D-01  7.38D-01  7.08D-01  9.87D-01  6.95D-01
                    CP:  8.87D-01  1.39D+00  2.00D+00  1.78D+00  1.32D+00
                    CP:  1.22D+00  9.77D-01
 E= -3673.60986456396     Delta-E=       -0.000000000169 Rises=F Damp=F
 DIIS: error= 1.95D-07 at cycle  18 NSaved=  18.
 NSaved=18 IEnMin=18 EnMin= -3673.60986456396     IErMin=18 ErrMin= 1.95D-07
 ErrMax= 1.95D-07  0.00D+00 EMaxC= 1.00D-01 BMatC= 1.08D-11 BMatP= 5.21D-11
 IDIUse=1 WtCom= 1.00D+00 WtEn= 0.00D+00
 Coeff-Com: -0.319D-05 0.442D-05 0.542D-06-0.213D-06 0.984D-05 0.695D-05
 Coeff-Com: -0.468D-05-0.126D-04 0.109D-03 0.101D-02 0.556D-02 0.186D-01
 Coeff-Com:  0.875D-02-0.696D-01-0.107D+00-0.193D-01 0.513D+00 0.649D+00
 Coeff:     -0.319D-05 0.442D-05 0.542D-06-0.213D-06 0.984D-05 0.695D-05
 Coeff:     -0.468D-05-0.126D-04 0.109D-03 0.101D-02 0.556D-02 0.186D-01
 Coeff:      0.875D-02-0.696D-01-0.107D+00-0.193D-01 0.513D+00 0.649D+00
 Gap=     0.180 Goal=   None    Shift=    0.000
 RMSDP=1.36D-08 MaxDP=1.33D-06 DE=-1.69D-10 OVMax= 2.79D-06

 Cycle  19  Pass 1  IDiag  1:
 RMSU=  4.38D-09    CP:  9.56D-01  1.90D+00  1.43D-01  2.59D-01  1.01D+00
                    CP:  6.85D-01  7.38D-01  7.08D-01  9.87D-01  6.95D-01
                    CP:  8.88D-01  1.40D+00  2.02D+00  1.81D+00  1.36D+00
                    CP:  1.30D+00  1.21D+00  7.65D-01
 E= -3673.60986456404     Delta-E=       -0.000000000084 Rises=F Damp=F
 DIIS: error= 5.73D-08 at cycle  19 NSaved=  19.
 NSaved=19 IEnMin=19 EnMin= -3673.60986456404     IErMin=19 ErrMin= 5.73D-08
 ErrMax= 5.73D-08  0.00D+00 EMaxC= 1.00D-01 BMatC= 1.15D-12 BMatP= 1.08D-11
 IDIUse=1 WtCom= 1.00D+00 WtEn= 0.00D+00
 Coeff-Com: -0.194D-05 0.257D-05 0.685D-07-0.279D-08 0.544D-05 0.733D-05
 Coeff-Com:  0.918D-05 0.468D-06-0.348D-04 0.220D-03 0.183D-02 0.730D-02
 Coeff-Com:  0.895D-02-0.209D-01-0.552D-01-0.614D-01 0.146D+00 0.365D+00
 Coeff-Com:  0.608D+00
 Coeff:     -0.194D-05 0.257D-05 0.685D-07-0.279D-08 0.544D-05 0.733D-05
 Coeff:      0.918D-05 0.468D-06-0.348D-04 0.220D-03 0.183D-02 0.730D-02
 Coeff:      0.895D-02-0.209D-01-0.552D-01-0.614D-01 0.146D+00 0.365D+00
 Coeff:      0.608D+00
 Gap=     0.180 Goal=   None    Shift=    0.000
 RMSDP=4.05D-09 MaxDP=3.51D-07 DE=-8.37D-11 OVMax= 7.30D-07

 SCF Done:  E(RPBE1PBE) =  -3673.60986456     A.U. after   19 cycles
            NFock= 19  Conv=0.40D-08     -V/T= 2.0061
 KE= 3.651297084172D+03 PE=-2.478455205596D+04 EE= 9.381263926371D+03
 Leave Link  502 at Sat Aug 12 03:26:06 2023, MaxMem=  4026531840 cpu:            8879.9 elap:             285.6
 (Enter /sw/arch/Centos8/EB_production/2021/software/Gaussian/g16.c01/l508.exe)
 QCSCF skips out because SCF is already converged.
 Leave Link  508 at Sat Aug 12 03:26:06 2023, MaxMem=  4026531840 cpu:               0.6 elap:               0.0
 (Enter /sw/arch/Centos8/EB_production/2021/software/Gaussian/g16.c01/l801.exe)
 DoSCS=F DFT=T ScalE2(SS,OS)=  1.000000  1.000000
 Range of M.O.s used for correlation:     1   802
 NBasis=   802 NAE=   192 NBE=   192 NFC=     0 NFV=     0
 NROrb=    802 NOA=   192 NOB=   192 NVA=   610 NVB=   610

 **** Warning!!: The largest alpha MO coefficient is  0.10779119D+02

 Leave Link  801 at Sat Aug 12 03:26:06 2023, MaxMem=  4026531840 cpu:               0.8 elap:               0.1
 (Enter /sw/arch/Centos8/EB_production/2021/software/Gaussian/g16.c01/l1002.exe)
 Minotr:  Closed shell wavefunction.
          Direct CPHF calculation.
          Differentiating once with respect to magnetic field using GIAOs.
          Electric field/nuclear overlap derivatives assumed to be zero.
          Requested convergence is 1.0D-08 RMS, and 1.0D-07 maximum.
          Secondary convergence is 1.0D-12 RMS, and 1.0D-12 maximum.
          NewPWx=T KeepS1=F KeepF1=F KeepIn=T MapXYZ=F SortEE=F KeepMc=T.
        33985 words used for storage of precomputed grid.
 Two-electron integral symmetry not used.
          MDV=    4026531840 using IRadAn=       1.
          Solving linear equations simultaneously, MaxMat=      96.
 FoFCou: FMM=F IPFlag=           0 FMFlag=      100000 FMFlg1=        2001
         NFxFlg=           0 DoJE=F BraDBF=F KetDBF=T FulRan=T
         wScrn=  0.000000 ICntrl=      6100 IOpCl=  0 I1Cent=           7 NGrid=         110
         NMat0=    1 NMatS0=      1 NMatT0=    0 NMatD0=    1 NMtDS0=    0 NMtDT0=    0
 Symmetry not used in FoFCou.
   1 Symmetry operations used in ECPInt.
 ECPInt:  NShTT=   86736 NPrTT=  357437 LenC2=   86737 LenP2D=  357437.
 LDataN:  DoStor=T MaxTD1= 5 Len=  102
 Number of processors reduced to  31 by ecpmxn.
 FoFJK:  IHMeth= 1 ICntrl=    6127 DoSepK=F KAlg= 0 I1Cent=           0 FoldK=F
 IRaf=         1 NMat=       1 IRICut=       1 DoRegI=T DoRafI=F ISym2E= 0 IDoP0=0 IntGTp=1.
          There are     3 degrees of freedom in the 1st order CPHF.  IDoFFX=0 NUNeed=     3.
      3 vectors produced by pass  0 Test12= 3.90D-12 3.33D-08 XBig12= 2.66D+02 1.86D+00.
 AX will form     3 AO Fock derivatives at one time.
      3 vectors produced by pass  1 Test12= 3.90D-12 3.33D-08 XBig12= 1.46D+00 5.09D-01.
      3 vectors produced by pass  2 Test12= 3.90D-12 3.33D-08 XBig12= 8.17D-02 8.47D-02.
      3 vectors produced by pass  3 Test12= 3.90D-12 3.33D-08 XBig12= 7.83D-04 6.56D-03.
      3 vectors produced by pass  4 Test12= 3.90D-12 3.33D-08 XBig12= 3.23D-05 2.03D-03.
      3 vectors produced by pass  5 Test12= 3.90D-12 3.33D-08 XBig12= 4.90D-07 1.40D-04.
      3 vectors produced by pass  6 Test12= 3.90D-12 3.33D-08 XBig12= 1.97D-09 6.13D-06.
      3 vectors produced by pass  7 Test12= 3.90D-12 3.33D-08 XBig12= 4.06D-11 2.91D-06.
      3 vectors produced by pass  8 Test12= 3.90D-12 3.33D-08 XBig12= 1.73D-12 3.17D-07.
 InvSVY:  IOpt=1 It=  1 EMax= 1.78D-15
 Solved reduced A of dimension    27 with     3 vectors.
 Calculating GIAO nuclear magnetic shielding tensors.
 SCF GIAO Magnetic shielding tensor (ppm):
      1  C    Isotropic =   125.1675   Anisotropy =    82.7095
   XX=   101.9470   YX=   -30.6789   ZX=    10.1559
   XY=   -22.6356   YY=    98.9975   ZY=   -10.2575
   XZ=    -1.3788   YZ=   -26.6349   ZZ=   174.5580
   Eigenvalues:    72.6661   122.5293   180.3071
      2  C    Isotropic =   125.4771   Anisotropy =    80.7815
   XX=    79.6416   YX=    16.8418   ZX=    11.5858
   XY=    15.8873   YY=   117.5913   ZY=    -2.3313
   XZ=    -5.4800   YZ=     4.3862   ZZ=   179.1984
   Eigenvalues:    73.5003   123.5996   179.3315
      3  C    Isotropic =   123.3551   Anisotropy =    83.8516
   XX=   126.7783   YX=    10.7660   ZX=    16.5139
   XY=     4.3460   YY=    74.8605   ZY=     9.9744
   XZ=    21.5132   YZ=    24.9036   ZZ=   168.4267
   Eigenvalues:    71.3946   119.4146   179.2562
      4  C    Isotropic =   123.8446   Anisotropy =    83.3454
   XX=    97.4497   YX=    -7.1178   ZX=    34.9214
   XY=   -12.2611   YY=   118.1549   ZY=     5.4800
   XZ=    52.5446   YZ=    10.7263   ZZ=   155.9293
   Eigenvalues:    70.8462   121.2794   179.4083
      5  C    Isotropic =   121.7807   Anisotropy =    86.8381
   XX=   117.1756   YX=     7.5072   ZX=    25.8383
   XY=    11.9703   YY=    89.5746   ZY=   -22.9734
   XZ=    34.4794   YZ=   -34.5170   ZZ=   158.5918
   Eigenvalues:    69.9475   115.7218   179.6727
      6  H    Isotropic =    28.3804   Anisotropy =     5.5626
   XX=    30.0407   YX=     1.7278   ZX=     0.6068
   XY=     2.0406   YY=    30.2394   ZY=    -0.5714
   XZ=     1.3949   YZ=     0.4969   ZZ=    24.8610
   Eigenvalues:    24.6450    28.4073    32.0888
      7  H    Isotropic =    28.3302   Anisotropy =     7.0322
   XX=    32.5040   YX=    -1.7637   ZX=    -0.6771
   XY=    -1.6512   YY=    27.3441   ZY=     0.1930
   XZ=     0.5258   YZ=    -0.2447   ZZ=    25.1426
   Eigenvalues:    25.1408    26.8316    33.0184
      8  H    Isotropic =    28.1694   Anisotropy =     4.2442
   XX=    28.8126   YX=     0.6764   ZX=     1.7998
   XY=     0.4744   YY=    30.8348   ZY=     0.5625
   XZ=     1.5021   YZ=    -0.9352   ZZ=    24.8608
   Eigenvalues:    24.2408    29.2686    30.9989
      9  H    Isotropic =    28.3628   Anisotropy =     3.8306
   XX=    30.0026   YX=     1.3383   ZX=     0.2603
   XY=     1.5799   YY=    28.5682   ZY=     0.9870
   XZ=    -1.3394   YZ=     0.1821   ZZ=    26.5176
   Eigenvalues:    26.1171    28.0547    30.9165
     10  H    Isotropic =    28.4208   Anisotropy =     5.7704
   XX=    27.5615   YX=    -2.2684   ZX=     1.0157
   XY=    -2.3023   YY=    31.1524   ZY=    -0.7015
   XZ=     0.3169   YZ=     0.9958   ZZ=    26.5485
   Eigenvalues:    25.8324    27.1623    32.2677
     11  Fe   Isotropic = -4960.5030   Anisotropy =  9064.2619
   XX= -7550.6835   YX=  -139.7442   ZX=  1897.1236
   XY=  -143.1668   YY= -7968.2305   ZY=  -293.8481
   XZ=  1980.3778   YZ=  -230.2411   ZZ=   637.4050
   Eigenvalues: -8062.5504 -7901.2968  1082.3382
     12  C    Isotropic =   124.8803   Anisotropy =    80.9968
   XX=   118.8258   YX=    19.1932   ZX=    11.0864
   XY=    13.0764   YY=    88.2019   ZY=   -15.5275
   XZ=     9.1427   YZ=   -47.3719   ZZ=   167.6134
   Eigenvalues:    70.1518   125.6110   178.8782
     13  C    Isotropic =    92.1650   Anisotropy =    85.6287
   XX=    66.4997   YX=   -10.4590   ZX=    -2.5004
   XY=   -12.3564   YY=    66.7348   ZY=   -17.2540
   XZ=    -9.6585   YZ=   -26.7885   ZZ=   143.2604
   Eigenvalues:    50.7375    76.5067   149.2508
     14  C    Isotropic =   116.0992   Anisotropy =    83.7241
   XX=    91.3201   YX=     4.0933   ZX=    -4.7199
   XY=     8.3682   YY=    89.4308   ZY=     8.9311
   XZ=   -21.2767   YZ=    20.3794   ZZ=   167.5467
   Eigenvalues:    79.7058    96.6765   171.9153
     15  C    Isotropic =   123.0859   Anisotropy =    72.0711
   XX=   123.1072   YX=   -23.6731   ZX=    11.6495
   XY=   -15.5274   YY=    83.5652   ZY=    13.0909
   XZ=    14.1408   YZ=    37.6669   ZZ=   162.5852
   Eigenvalues:    67.0595   131.0648   171.1332
     16  C    Isotropic =   123.8583   Anisotropy =    79.1088
   XX=    85.7804   YX=    -4.4706   ZX=    28.8040
   XY=    -3.2732   YY=   124.2617   ZY=     0.4804
   XZ=    45.1061   YZ=     0.3004   ZZ=   161.5330
   Eigenvalues:    70.4797   124.4978   176.5975
     17  H    Isotropic =    27.7652   Anisotropy =     3.8264
   XX=    30.2357   YX=     0.4926   ZX=    -0.4620
   XY=    -0.1854   YY=    29.2887   ZY=    -0.3002
   XZ=    -0.7733   YZ=     0.3569   ZZ=    23.7711
   Eigenvalues:    23.7123    29.2671    30.3161
     18  H    Isotropic =    28.0683   Anisotropy =     8.0889
   XX=    30.0411   YX=    -2.1494   ZX=    -0.1730
   XY=    -1.0546   YY=    32.5834   ZY=     1.5728
   XZ=    -0.8503   YZ=     0.3971   ZZ=    21.5804
   Eigenvalues:    21.4767    29.2674    33.4609
     19  H    Isotropic =    28.1670   Anisotropy =     7.7127
   XX=    33.1337   YX=    -0.3496   ZX=    -0.7428
   XY=     0.1516   YY=    26.7281   ZY=     0.2624
   XZ=    -1.7067   YZ=     0.0027   ZZ=    24.6392
   Eigenvalues:    24.4601    26.7321    33.3088
     20  C    Isotropic =   135.1024   Anisotropy =    33.4952
   XX=   127.4889   YX=    -6.4526   ZX=     3.3049
   XY=    -8.1513   YY=   151.3201   ZY=   -13.4212
   XZ=     9.3271   YZ=    -6.1462   ZZ=   126.4982
   Eigenvalues:   120.4074   127.4673   157.4325
     21  P    Isotropic =   425.0771   Anisotropy =    47.9543
   XX=   427.0157   YX=   -18.4411   ZX=    -6.5479
   XY=    -8.7301   YY=   399.6100   ZY=     9.1632
   XZ=    -0.1893   YZ=    28.4617   ZZ=   448.6055
   Eigenvalues:   389.4392   428.7454   457.0466
     22  N    Isotropic =   251.0163   Anisotropy =    64.4970
   XX=   200.6811   YX=   -14.2352   ZX=    23.3909
   XY=    -8.3101   YY=   282.8626   ZY=    -8.2322
   XZ=     8.9745   YZ=   -17.0121   ZZ=   269.5053
   Eigenvalues:   196.2535   262.7811   294.0143
     23  H    Isotropic =    26.0051   Anisotropy =     9.6989
   XX=    32.0977   YX=    -0.5551   ZX=     0.6651
   XY=    -1.9107   YY=    26.1391   ZY=     0.2236
   XZ=     1.8985   YZ=    -0.4141   ZZ=    19.7784
   Eigenvalues:    19.6463    25.8979    32.4710
     24  C    Isotropic =    48.6405   Anisotropy =   193.4520
   XX=     8.1852   YX=    30.5942   ZX=   -21.4398
   XY=    30.2463   YY=   171.4465   ZY=   -12.5415
   XZ=   -21.2008   YZ=    -3.9723   ZZ=   -33.7103
   Eigenvalues:   -42.7388    11.0517   177.6085
     25  C    Isotropic =    55.7649   Anisotropy =   193.8143
   XX=     1.5193   YX=    34.0841   ZX=     7.9313
   XY=    34.9066   YY=   178.2179   ZY=    -2.6735
   XZ=    11.9443   YZ=   -15.6514   ZZ=   -12.4427
   Eigenvalues:   -20.9278     3.2480   184.9744
     26  C    Isotropic =    59.5211   Anisotropy =   186.4355
   XX=   -33.2311   YX=    27.0550   ZX=   -12.2273
   XY=    27.7630   YY=   180.1827   ZY=     1.1743
   XZ=    -6.1091   YZ=    -8.9390   ZZ=    31.6116
   Eigenvalues:   -37.7651    32.5169   183.8114
     27  C    Isotropic =    63.1924   Anisotropy =   183.8432
   XX=   -31.4576   YX=    40.8335   ZX=   -16.1495
   XY=    28.9705   YY=   180.1096   ZY=     7.1232
   XZ=   -20.4699   YZ=    -5.8293   ZZ=    40.9251
   Eigenvalues:   -41.0975    44.9201   185.7545
     28  C    Isotropic =    67.9183   Anisotropy =   174.9899
   XX=    21.1316   YX=    26.3950   ZX=    35.8199
   XY=    26.5988   YY=   179.6279   ZY=   -17.3366
   XZ=    36.9363   YZ=   -15.7758   ZZ=     2.9955
   Eigenvalues:   -29.5767    48.7534   184.5783
     29  H    Isotropic =    24.8279   Anisotropy =    11.7645
   XX=    21.7999   YX=     0.4299   ZX=     0.5823
   XY=     0.3070   YY=    20.6932   ZY=     0.8633
   XZ=    -0.0578   YZ=     4.7987   ZZ=    31.9905
   Eigenvalues:    19.9746    21.8382    32.6709
     30  C    Isotropic =    68.4925   Anisotropy =   173.3378
   XX=    42.4628   YX=    21.8744   ZX=   -28.2707
   XY=    20.3786   YY=   179.9646   ZY=   -10.2371
   XZ=   -31.7968   YZ=    -7.7676   ZZ=   -16.9499
   Eigenvalues:   -29.4870    50.9134   184.0511
     31  H    Isotropic =    24.6995   Anisotropy =     9.1653
   XX=    22.8483   YX=    -0.5355   ZX=    -3.0733
   XY=    -0.7556   YY=    21.3366   ZY=    -0.0138
   XZ=    -1.8701   YZ=     1.8155   ZZ=    29.9135
   Eigenvalues:    21.0985    22.1903    30.8097
     32  H    Isotropic =    25.0671   Anisotropy =     5.0097
   XX=    25.6323   YX=    -1.2111   ZX=     1.1168
   XY=    -1.3408   YY=    21.7923   ZY=     0.9706
   XZ=     1.3315   YZ=     1.6291   ZZ=    27.7767
   Eigenvalues:    21.0216    25.7728    28.4069
     33  H    Isotropic =    24.9570   Anisotropy =     4.4867
   XX=    26.2037   YX=    -0.5205   ZX=    -1.1484
   XY=    -0.5780   YY=    21.9069   ZY=     1.5173
   XZ=    -0.7626   YZ=     1.8303   ZZ=    26.7603
   Eigenvalues:    21.3732    25.5496    27.9481
     34  P    Isotropic =   419.2665   Anisotropy =    22.4593
   XX=   430.8619   YX=    12.6976   ZX=    -1.7080
   XY=     1.3737   YY=   418.1053   ZY=    -3.5238
   XZ=    -4.5715   YZ=     5.0729   ZZ=   408.8324
   Eigenvalues:   408.0179   415.5423   434.2394
     35  C    Isotropic =   151.0884   Anisotropy =    41.5321
   XX=   139.8064   YX=     0.0516   ZX=     2.1418
   XY=    -1.2134   YY=   164.7267   ZY=    22.6354
   XZ=     1.7557   YZ=    18.4344   ZZ=   148.7321
   Eigenvalues:   134.0408   140.4479   178.7765
     36  H    Isotropic =    30.1072   Anisotropy =     8.1286
   XX=    33.2480   YX=     1.8416   ZX=     0.6865
   XY=     2.2427   YY=    32.9421   ZY=    -0.1307
   XZ=     2.1845   YZ=     3.1812   ZZ=    24.1316
   Eigenvalues:    23.7457    31.0497    35.5263
     37  H    Isotropic =    29.8109   Anisotropy =    11.3118
   XX=    28.2384   YX=    -2.8518   ZX=     0.6040
   XY=    -4.6784   YY=    35.7665   ZY=    -0.6682
   XZ=     0.5731   YZ=     2.3511   ZZ=    25.4278
   Eigenvalues:    24.9655    27.1151    37.3521
     38  H    Isotropic =    29.3453   Anisotropy =     7.7988
   XX=    25.5475   YX=    -0.1878   ZX=    -2.6230
   XY=    -5.5977   YY=    31.5258   ZY=     1.0437
   XZ=    -2.2400   YZ=     2.3360   ZZ=    30.9626
   Eigenvalues:    23.9603    29.5311    34.5445
     39  C    Isotropic =   147.1430   Anisotropy =    51.3658
   XX=   129.4118   YX=    -2.3218   ZX=    -7.0354
   XY=    -7.1744   YY=   133.0484   ZY=   -11.8195
   XZ=    -4.2319   YZ=    -7.8197   ZZ=   178.9689
   Eigenvalues:   124.1735   135.8687   181.3869
     40  H    Isotropic =    29.3942   Anisotropy =     9.6825
   XX=    28.4021   YX=    -1.3297   ZX=     2.0127
   XY=    -2.5003   YY=    29.7750   ZY=    -4.1438
   XZ=     2.9848   YZ=    -5.1424   ZZ=    30.0056
   Eigenvalues:    25.1815    27.1520    35.8492
     41  H    Isotropic =    29.0673   Anisotropy =     8.4626
   XX=    33.4012   YX=     2.1019   ZX=    -0.5413
   XY=     1.8008   YY=    25.3689   ZY=    -3.8054
   XZ=    -2.3602   YZ=    -2.8211   ZZ=    28.4319
   Eigenvalues:    23.1723    29.3207    34.7090
     42  H    Isotropic =    28.2972   Anisotropy =     8.3445
   XX=    26.8176   YX=     2.7427   ZX=     2.1786
   XY=     3.3805   YY=    27.8004   ZY=     1.8676
   XZ=     2.1019   YZ=     3.7239   ZZ=    30.2737
   Eigenvalues:    24.1998    26.8316    33.8602
     43  C    Isotropic =   161.5596   Anisotropy =     8.9526
   XX=   164.5947   YX=     0.4684   ZX=     0.0454
   XY=     3.4993   YY=   155.9836   ZY=    -4.3400
   XZ=     2.5800   YZ=    -8.2016   ZZ=   164.1004
   Eigenvalues:   152.1221   165.0287   167.5279
     44  C    Isotropic =   158.8476   Anisotropy =    10.5113
   XX=   155.1407   YX=     7.0238   ZX=     2.1770
   XY=    -1.2580   YY=   162.6975   ZY=     6.9868
   XZ=    -0.0507   YZ=     0.6340   ZZ=   158.7045
   Eigenvalues:   154.1510   156.5366   165.8551
     45  C    Isotropic =   163.0542   Anisotropy =     6.2930
   XX=   166.7743   YX=    -1.5186   ZX=    -1.6541
   XY=    -0.3604   YY=   163.2037   ZY=    -0.9466
   XZ=     0.7677   YZ=     7.3784   ZZ=   159.1846
   Eigenvalues:   157.4015   164.5115   167.2495
     46  H    Isotropic =    29.9190   Anisotropy =     3.4461
   XX=    30.2689   YX=    -1.4344   ZX=     0.9933
   XY=    -1.3732   YY=    31.1952   ZY=     0.6849
   XZ=     1.6409   YZ=     1.5505   ZZ=    28.2929
   Eigenvalues:    26.9832    30.5573    32.2164
     47  C    Isotropic =   165.6568   Anisotropy =     5.2718
   XX=   167.3499   YX=     0.6729   ZX=     0.6248
   XY=    -1.9872   YY=   166.7969   ZY=    -0.1766
   XZ=     2.7204   YZ=     7.7974   ZZ=   162.8237
   Eigenvalues:   160.0810   167.7181   169.1714
     48  H    Isotropic =    30.2108   Anisotropy =     8.1700
   XX=    34.4012   YX=     1.4641   ZX=    -3.4582
   XY=    -2.2032   YY=    29.8154   ZY=    -2.9064
   XZ=    -2.9871   YZ=    -3.7173   ZZ=    26.4159
   Eigenvalues:    23.5760    31.3990    35.6575
     49  H    Isotropic =    30.3484   Anisotropy =     8.2486
   XX=    32.4743   YX=     3.5238   ZX=     2.7082
   XY=     2.0233   YY=    32.2532   ZY=     2.2361
   XZ=     2.0184   YZ=     0.3101   ZZ=    26.3177
   Eigenvalues:    25.4974    29.7002    35.8475
     50  C    Isotropic =   164.2327   Anisotropy =     5.0411
   XX=   163.8042   YX=    -0.8957   ZX=     4.4698
   XY=    -6.0571   YY=   163.4482   ZY=     4.3779
   XZ=    -1.5731   YZ=     0.7484   ZZ=   165.4457
   Eigenvalues:   158.8894   166.2153   167.5935
     51  H    Isotropic =    30.1079   Anisotropy =     8.9304
   XX=    31.2415   YX=    -1.6608   ZX=    -1.7155
   XY=    -1.6714   YY=    33.0274   ZY=    -5.5516
   XZ=    -1.9274   YZ=    -5.2799   ZZ=    26.0548
   Eigenvalues:    22.4452    31.8169    36.0615
     52  H    Isotropic =    30.4869   Anisotropy =     4.8186
   XX=    30.4061   YX=    -1.1835   ZX=    -0.1843
   XY=    -1.5907   YY=    28.0814   ZY=     1.3634
   XZ=     0.2460   YZ=     2.4852   ZZ=    32.9733
   Eigenvalues:    26.9120    30.8495    33.6993
     53  C    Isotropic =   165.3746   Anisotropy =     5.3279
   XX=   165.7450   YX=    -0.4685   ZX=    -0.7352
   XY=     4.4078   YY=   163.9132   ZY=     3.4739
   XZ=     4.6300   YZ=    -1.4970   ZZ=   166.4656
   Eigenvalues:   162.6402   164.5571   168.9265
     54  H    Isotropic =    30.5574   Anisotropy =     7.3692
   XX=    30.3133   YX=    -0.3618   ZX=     1.9950
   XY=    -1.3066   YY=    26.9689   ZY=     0.0381
   XZ=     2.7085   YZ=     1.2318   ZZ=    34.3901
   Eigenvalues:    26.5710    29.6310    35.4703
     55  H    Isotropic =    30.2122   Anisotropy =     8.5740
   XX=    30.5368   YX=     0.3653   ZX=    -0.4896
   XY=    -0.5789   YY=    33.0576   ZY=    -4.9754
   XZ=    -0.0554   YZ=    -5.1249   ZZ=    27.0424
   Eigenvalues:    24.1589    30.5496    35.9282
     56  H    Isotropic =    30.4753   Anisotropy =     7.9678
   XX=    32.9587   YX=     2.6127   ZX=     3.5256
   XY=     1.7743   YY=    30.7550   ZY=     1.7939
   XZ=     2.6856   YZ=     1.2733   ZZ=    27.7121
   Eigenvalues:    26.2111    29.4276    35.7871
     57  H    Isotropic =    30.1347   Anisotropy =    10.9787
   XX=    35.2168   YX=    -0.4537   ZX=    -4.5500
   XY=    -0.5865   YY=    26.7567   ZY=    -1.4731
   XZ=    -4.4218   YZ=    -1.6938   ZZ=    28.4306
   Eigenvalues:    24.8033    28.1470    37.4538
     58  H    Isotropic =    30.2416   Anisotropy =    11.6630
   XX=    35.3483   YX=    -3.6836   ZX=     2.3576
   XY=    -3.9710   YY=    28.2931   ZY=    -2.4765
   XZ=     2.5418   YZ=    -2.6261   ZZ=    27.0834
   Eigenvalues:    25.0345    27.6733    38.0169
     59  H    Isotropic =    30.5271   Anisotropy =     7.9278
   XX=    29.5310   YX=    -2.0365   ZX=    -2.0341
   XY=    -1.7262   YY=    33.0362   ZY=     3.7310
   XZ=    -1.2182   YZ=     2.8076   ZZ=    29.0140
   Eigenvalues:    27.0414    28.7275    35.8123
     60  C    Isotropic =   154.3919   Anisotropy =    23.9572
   XX=   155.7623   YX=   -10.4557   ZX=   -13.1206
   XY=    -7.3541   YY=   164.9199   ZY=   -10.6243
   XZ=    -5.8520   YZ=    -1.9869   ZZ=   142.4933
   Eigenvalues:   134.3696   158.4427   170.3633
     61  C    Isotropic =   165.8768   Anisotropy =     5.7230
   XX=   168.2687   YX=     2.7843   ZX=    -5.6568
   XY=    -4.1627   YY=   169.0717   ZY=     1.2528
   XZ=     1.4967   YZ=    -0.5658   ZZ=   160.2900
   Eigenvalues:   159.7772   168.1611   169.6921
     62  C    Isotropic =   160.0403   Anisotropy =    11.7826
   XX=   160.5983   YX=     5.1520   ZX=    -0.1963
   XY=    -0.3484   YY=   161.2256   ZY=    -7.2013
   XZ=    -4.3964   YZ=    -5.7343   ZZ=   158.2970
   Eigenvalues:   153.1167   159.1088   167.8953
     63  H    Isotropic =    30.5188   Anisotropy =    10.1782
   XX=    37.2979   YX=    -0.4872   ZX=    -0.2612
   XY=     0.3531   YY=    29.9112   ZY=    -5.4474
   XZ=    -0.3137   YZ=    -1.2532   ZZ=    24.3473
   Eigenvalues:    22.7687    31.4834    37.3043
     64  C    Isotropic =   163.7626   Anisotropy =     5.6937
   XX=   165.3750   YX=     3.5159   ZX=     3.6036
   XY=    -0.6822   YY=   166.3322   ZY=    -3.7134
   XZ=    -0.9826   YZ=    -0.9580   ZZ=   159.5807
   Eigenvalues:   158.4413   165.2882   167.5584
     65  H    Isotropic =    30.0510   Anisotropy =    10.2690
   XX=    26.4030   YX=     2.8999   ZX=    -2.5714
   XY=     7.3252   YY=    32.2333   ZY=    -2.4930
   XZ=    -1.8510   YZ=    -1.8880   ZZ=    31.5168
   Eigenvalues:    23.3440    29.9120    36.8970
     66  H    Isotropic =    30.6730   Anisotropy =     5.9014
   XX=    32.7620   YX=    -0.4767   ZX=     2.5290
   XY=    -0.5131   YY=    33.5173   ZY=    -1.3013
   XZ=     3.0623   YZ=    -1.4107   ZZ=    25.7397
   Eigenvalues:    24.6210    32.7907    34.6073
     67  C    Isotropic =   162.7747   Anisotropy =     6.4755
   XX=   164.9528   YX=     2.8139   ZX=    -5.8908
   XY=    -0.2452   YY=   165.2875   ZY=    -0.6958
   XZ=     0.9562   YZ=    -1.3872   ZZ=   158.0839
   Eigenvalues:   157.2435   163.9890   167.0917
     68  H    Isotropic =    29.8263   Anisotropy =     5.3413
   XX=    28.0176   YX=     2.3061   ZX=     1.4529
   XY=     2.6339   YY=    29.3304   ZY=     0.1809
   XZ=     1.8653   YZ=     1.2398   ZZ=    32.1311
   Eigenvalues:    25.9811    30.1107    33.3872
     69  H    Isotropic =    30.4086   Anisotropy =     5.9727
   XX=    31.6438   YX=    -2.0666   ZX=    -3.1572
   XY=    -3.0103   YY=    31.0598   ZY=    -2.0403
   XZ=    -3.6327   YZ=    -1.6697   ZZ=    28.5222
   Eigenvalues:    24.9143    31.9211    34.3904
     70  C    Isotropic =   165.0625   Anisotropy =     5.6794
   XX=   166.6171   YX=    -7.1351   ZX=     0.8188
   XY=     1.3718   YY=   164.8331   ZY=    -1.2483
   XZ=    -0.1583   YZ=    -0.3415   ZZ=   163.7372
   Eigenvalues:   162.5323   163.8064   168.8487
     71  H    Isotropic =    30.9791   Anisotropy =     5.7109
   XX=    31.8582   YX=    -1.2105   ZX=    -2.0245
   XY=    -1.1036   YY=    33.6312   ZY=     0.5292
   XZ=    -2.5411   YZ=     1.6060   ZZ=    27.4479
   Eigenvalues:    26.4380    31.7130    34.7863
     72  H    Isotropic =    30.4339   Anisotropy =    10.7567
   XX=    27.1998   YX=     3.4766   ZX=     2.9438
   XY=     4.4625   YY=    32.1542   ZY=     3.1842
   XZ=     2.9466   YZ=     3.2837   ZZ=    31.9478
   Eigenvalues:    24.8046    28.8921    37.6050
     73  H    Isotropic =    30.4793   Anisotropy =     6.4031
   XX=    32.8325   YX=    -0.5794   ZX=     1.8438
   XY=    -1.0880   YY=    31.0234   ZY=    -2.8859
   XZ=     3.0331   YZ=    -2.3819   ZZ=    27.5820
   Eigenvalues:    25.6942    30.9956    34.7480
     74  H    Isotropic =    30.2409   Anisotropy =    10.7463
   XX=    26.6190   YX=     2.2231   ZX=    -2.5288
   XY=     2.5007   YY=    29.4773   ZY=    -3.7438
   XZ=    -2.4388   YZ=    -3.2563   ZZ=    34.6264
   Eigenvalues:    25.2551    28.0625    37.4051
     75  H    Isotropic =    30.4120   Anisotropy =    11.7531
   XX=    26.2974   YX=     2.4320   ZX=    -0.1580
   XY=     2.7663   YY=    37.4120   ZY=    -1.8189
   XZ=    -0.0833   YZ=    -1.5319   ZZ=    27.5267
   Eigenvalues:    25.6823    27.3064    38.2474
     76  H    Isotropic =    30.7028   Anisotropy =     9.1390
   XX=    35.5656   YX=     2.1914   ZX=    -0.8816
   XY=     3.6270   YY=    28.8863   ZY=    -0.9107
   XZ=    -0.9529   YZ=    -0.6447   ZZ=    27.6565
   Eigenvalues:    27.2293    28.0836    36.7955
     77  C    Isotropic =   151.7288   Anisotropy =    27.0857
   XX=   154.9016   YX=     6.0394   ZX=    13.6842
   XY=    -0.5149   YY=   150.4525   ZY=     7.2253
   XZ=    15.1225   YZ=     8.7098   ZZ=   149.8322
   Eigenvalues:   136.2450   149.1554   169.7859
     78  C    Isotropic =   156.4415   Anisotropy =    17.0412
   XX=   149.5770   YX=    -8.0158   ZX=     0.7634
   XY=    -2.9586   YY=   162.9261   ZY=     7.3807
   XZ=    -5.7064   YZ=     2.8482   ZZ=   156.8213
   Eigenvalues:   147.5622   153.9599   167.8023
     79  C    Isotropic =   157.6721   Anisotropy =    13.8860
   XX=   160.6239   YX=    -6.5467   ZX=    -5.9706
   XY=    -1.6719   YY=   164.2509   ZY=    -0.1238
   XZ=     2.7315   YZ=    -1.7936   ZZ=   148.1416
   Eigenvalues:   147.7930   158.2939   166.9294
     80  H    Isotropic =    29.4791   Anisotropy =     7.5601
   XX=    27.3220   YX=    -2.3945   ZX=     4.2748
   XY=    -2.7855   YY=    32.7933   ZY=    -0.2480
   XZ=     4.2687   YZ=    -0.0874   ZZ=    28.3220
   Eigenvalues:    23.1616    30.7565    34.5191
     81  C    Isotropic =   161.7108   Anisotropy =     8.2611
   XX=   161.1303   YX=     0.4930   ZX=     2.3255
   XY=    -0.7526   YY=   165.3572   ZY=     6.7402
   XZ=     6.5511   YZ=    -0.2522   ZZ=   158.6449
   Eigenvalues:   154.5974   163.3168   167.2182
     82  H    Isotropic =    30.0643   Anisotropy =     6.4183
   XX=    30.9894   YX=     3.2993   ZX=    -3.3304
   XY=     2.8255   YY=    29.6819   ZY=     1.9901
   XZ=    -3.5547   YZ=     1.1976   ZZ=    29.5215
   Eigenvalues:    24.6558    31.1939    34.3431
     83  H    Isotropic =    30.6002   Anisotropy =     5.1390
   XX=    31.6553   YX=    -2.8559   ZX=     3.4102
   XY=    -1.8600   YY=    30.3052   ZY=     2.8321
   XZ=     2.6471   YZ=     1.8708   ZZ=    29.8400
   Eigenvalues:    25.3732    32.4011    34.0261
     84  C    Isotropic =   162.5606   Anisotropy =     8.2066
   XX=   159.3178   YX=    -0.0235   ZX=     5.3091
   XY=     6.1399   YY=   166.3990   ZY=     0.6492
   XZ=     1.9193   YZ=     0.0106   ZZ=   161.9649
   Eigenvalues:   156.2367   163.4134   168.0316
     85  H    Isotropic =    29.6137   Anisotropy =     5.4690
   XX=    30.1595   YX=    -0.4501   ZX=    -2.3812
   XY=     0.8303   YY=    32.0374   ZY=     3.6046
   XZ=    -1.7046   YZ=     1.6974   ZZ=    26.6441
   Eigenvalues:    24.8305    30.7508    33.2597
     86  H    Isotropic =    30.7515   Anisotropy =     5.3318
   XX=    27.9093   YX=     1.3645   ZX=     3.5866
   XY=     2.4054   YY=    32.5149   ZY=    -0.0714
   XZ=     4.0961   YZ=    -1.2790   ZZ=    31.8303
   Eigenvalues:    25.0417    32.9068    34.3060
     87  C    Isotropic =   164.7123   Anisotropy =     3.9603
   XX=   165.4224   YX=     1.4853   ZX=     1.5493
   XY=    -3.6164   YY=   163.0182   ZY=    -3.3772
   XZ=     1.8135   YZ=     3.5396   ZZ=   165.6962
   Eigenvalues:   162.4371   164.3472   167.3525
     88  H    Isotropic =    30.3871   Anisotropy =     6.1325
   XX=    27.1834   YX=     0.2203   ZX=     1.4158
   XY=     0.3294   YY=    29.9188   ZY=     0.1865
   XZ=     2.0334   YZ=    -0.7068   ZZ=    34.0592
[...]
   571. RY*(   2) C  79                  0.00314     0.97789   
   572. RY*(   3) C  79                  0.00127     0.96745   
   573. RY*(   4) C  79                  0.00089     0.98635   
   574. RY*(   5) C  79                  0.00029     1.88107   
   575. RY*(   6) C  79                  0.00023     1.80721   
   576. RY*(   7) C  79                  0.00014     2.18425   
   577. RY*(   8) C  79                  0.00004     2.06195   
   578. RY*(   9) C  79                  0.00004     2.07115   
   579. RY*(   1) H  80                  0.00599     0.67516   
   580. RY*(   1) C  81                  0.00575     1.02929   
   581. RY*(   2) C  81                  0.00165     1.16171   
   582. RY*(   3) C  81                  0.00123     0.68463   
   583. RY*(   4) C  81                  0.00053     1.04798   
   584. RY*(   5) C  81                  0.00033     1.84573   
   585. RY*(   6) C  81                  0.00016     2.21998   
   586. RY*(   7) C  81                  0.00006     1.70671   
   587. RY*(   8) C  81                  0.00001     1.93898   
   588. RY*(   9) C  81                  0.00002     1.93694   
   589. RY*(   1) H  82                  0.00282     0.38191   
   590. RY*(   1) H  83                  0.00275     0.49792   
   591. RY*(   1) C  84                  0.00589     1.04442   
   592. RY*(   2) C  84                  0.00185     1.06091   
   593. RY*(   3) C  84                  0.00126     0.75719   
   594. RY*(   4) C  84                  0.00053     1.04585   
   595. RY*(   5) C  84                  0.00032     1.83204   
   596. RY*(   6) C  84                  0.00015     2.21077   
   597. RY*(   7) C  84                  0.00007     1.74962   
   598. RY*(   8) C  84                  0.00002     1.94704   
   599. RY*(   9) C  84                  0.00002     1.95809   
   600. RY*(   1) H  85                  0.00275     0.54093   
   601. RY*(   1) H  86                  0.00330     0.50498   
   602. RY*(   1) C  87                  0.00523     1.04383   
   603. RY*(   2) C  87                  0.00168     1.12954   
   604. RY*(   3) C  87                  0.00122     0.68307   
   605. RY*(   4) C  87                  0.00042     1.03982   
   606. RY*(   5) C  87                  0.00034     1.82536   
   607. RY*(   6) C  87                  0.00015     2.22060   
   608. RY*(   7) C  87                  0.00006     1.73637   
   609. RY*(   8) C  87                  0.00002     1.93705   
   610. RY*(   9) C  87                  0.00001     1.93523   
   611. RY*(   1) H  88                  0.00294     0.44779   
   612. RY*(   1) H  89                  0.00228     0.36834   
   613. RY*(   1) H  90                  0.00291     0.44010   
   614. RY*(   1) H  91                  0.00249     0.36914   
   615. RY*(   1) H  92                  0.00231     0.36720   
   616. RY*(   1) H  93                  0.00295     0.39416   
   617. RY*(   1) C  94                  0.00528     1.08937   
   618. RY*(   2) C  94                  0.00387     1.16392   
   619. RY*(   3) C  94                  0.00223     0.90841   
   620. RY*(   4) C  94                  0.00164     1.09842   
   621. RY*(   5) C  94                  0.00040     1.96602   
   622. RY*(   6) C  94                  0.00032     1.98400   
   623. RY*(   7) C  94                  0.00026     2.24034   
   624. RY*(   8) C  94                  0.00019     2.03030   
   625. RY*(   9) C  94                  0.00012     1.88775   
   626. RY*(   1) C  95                  0.00569     1.03219   
   627. RY*(   2) C  95                  0.00305     0.88641   
   628. RY*(   3) C  95                  0.00125     0.88442   
   629. RY*(   4) C  95                  0.00070     1.10797   
   630. RY*(   5) C  95                  0.00028     1.86854   
   631. RY*(   6) C  95                  0.00019     1.99442   
   632. RY*(   7) C  95                  0.00011     2.10832   
   633. RY*(   8) C  95                  0.00005     2.04451   
   634. RY*(   9) C  95                  0.00002     2.03968   
   635. RY*(   1) C  96                  0.00626     1.05569   
   636. RY*(   2) C  96                  0.00386     0.94929   
   637. RY*(   3) C  96                  0.00209     0.76720   
   638. RY*(   4) C  96                  0.00078     1.09384   
   639. RY*(   5) C  96                  0.00035     2.06377   
   640. RY*(   6) C  96                  0.00027     1.91371   
   641. RY*(   7) C  96                  0.00012     2.24609   
   642. RY*(   8) C  96                  0.00003     2.10910   
   643. RY*(   9) C  96                  0.00004     2.06243   
   644. RY*(   1) H  97                  0.00532     0.56579   
   645. RY*(   1) C  98                  0.00591     1.04504   
   646. RY*(   2) C  98                  0.00186     1.07849   
   647. RY*(   3) C  98                  0.00123     0.71146   
   648. RY*(   4) C  98                  0.00058     1.06852   
   649. RY*(   5) C  98                  0.00033     1.85062   
   650. RY*(   6) C  98                  0.00015     2.19819   
   651. RY*(   7) C  98                  0.00006     1.80601   
   652. RY*(   8) C  98                  0.00002     1.97862   
   653. RY*(   9) C  98                  0.00002     1.90650   
   654. RY*(   1) H  99                  0.00505     0.64851   
   655. RY*(   1) H 100                  0.00287     0.57586   
   656. RY*(   1) C 101                  0.00616     1.05257   
   657. RY*(   2) C 101                  0.00189     1.07036   
   658. RY*(   3) C 101                  0.00124     0.71071   
   659. RY*(   4) C 101                  0.00064     1.10582   
   660. RY*(   5) C 101                  0.00032     1.85103   
   661. RY*(   6) C 101                  0.00015     2.21702   
   662. RY*(   7) C 101                  0.00007     1.80337   
   663. RY*(   8) C 101                  0.00002     1.95691   
   664. RY*(   9) C 101                  0.00002     1.97004   
   665. RY*(   1) H 102                  0.00406     0.59093   
   666. RY*(   1) H 103                  0.00737     0.84393   
   667. RY*(   1) C 104                  0.00502     1.07148   
   668. RY*(   2) C 104                  0.00160     1.17755   
   669. RY*(   3) C 104                  0.00122     0.69836   
   670. RY*(   4) C 104                  0.00044     1.04520   
   671. RY*(   5) C 104                  0.00033     1.83866   
   672. RY*(   6) C 104                  0.00015     2.22513   
   673. RY*(   7) C 104                  0.00008     1.70537   
   674. RY*(   8) C 104                  0.00001     1.88150   
   675. RY*(   9) C 104                  0.00002     2.00626   
   676. RY*(   1) H 105                  0.00230     0.37972   
   677. RY*(   1) H 106                  0.00295     0.41496   
   678. RY*(   1) H 107                  0.00235     0.43314   
   679. RY*(   1) H 108                  0.00302     0.40765   
   680. RY*(   1) H 109                  0.00314     0.49417   
   681. RY*(   1) H 110                  0.00233     0.37155   
   694. BD*(   1) C  12 - C  13          0.04111     0.53432   
   695. BD*(   1) C  12 - C  16          0.02714     0.54207   
   696. BD*(   1) C  12 - H  17          0.01742     0.50037   
   697. BD*(   1) C  13 - C  14          0.04437     0.51386   
   698. BD*(   2) C  13 - C  14          0.52491     0.03732  703(v),195(v),714(r),192(r)
                                                    697(g),190(r),189(r),710(v)
                                                    708(v),275(g),265(g),719(r)
                                                    707(v),684(r),687(r),274(g)
                                                    252(r),254(r),194(r),185(r)
                                                    193(r)
   699. BD*(   1) C  13 - C  20          0.04865     0.45926   
   700. BD*(   1) C  14 - C  15          0.02798     0.52383   
   701. BD*(   1) C  14 - P  21          0.02825     0.26795   
   702. BD*(   1) C  15 - C  16          0.03304     0.53103   
   703. BD*(   2) C  15 - C  16          0.45643     0.05288  698(v),195(v),702(g),190(r)
                                                    687(r),192(r),193(r),283(g)
                                                    293(g),291(g),284(g),253(r)
                                                    189(r),252(r),208(r),251(r)
   704. BD*(   1) C  15 - H  18          0.01897     0.51075   
   705. BD*(   1) C  16 - H  19          0.01694     0.49312   
   706. BD*(   1) C  20 - N  22          0.03997     0.39756   
   707. BD*(   1) C  20 - H  23          0.03801     0.45117   
   708. BD*(   1) C  20 - C  24          0.03900     0.44087   
   709. BD*(   1) P  21 - C  77          0.03214     0.22608   
   710. BD*(   1) P  21 - C  94          0.03847     0.24283   
   711. BD*(   1) N  22 - C  35          0.01443     0.40921   
   712. BD*(   1) N  22 - C  39          0.01221     0.41253   
   713. BD*(   1) C  24 - C  25          0.03512     0.59791   
   714. BD*(   2) C  24 - C  25          0.37208     0.04556  722(v),719(v),698(r),706(v)
                                                    728(v),343(g),333(g),699(v)
                                                    341(g),352(v),332(g)
   715. BD*(   1) C  24 - C  26          0.03057     0.59820   
   716. BD*(   1) C  25 - C  27          0.02861     0.58992   
   717. BD*(   1) C  25 - P  34          0.02829     0.25879   
   718. BD*(   1) C  26 - C  28          0.01846     0.61440   
   719. BD*(   2) C  26 - C  28          0.31991     0.04876  722(v),714(v),369(g),352(g)
                                                    698(r),353(g),370(g)
   720. BD*(   1) C  26 - H  29          0.01574     0.49047   
   721. BD*(   1) C  27 - C  30          0.02127     0.61203   
   722. BD*(   2) C  27 - C  30          0.32636     0.04612  714(v),719(v),379(g),361(g)
                                                    380(g),362(g),360(g)
   723. BD*(   1) C  27 - H  31          0.01841     0.48937   
   724. BD*(   1) C  28 - C  30          0.01875     0.60306   
   725. BD*(   1) C  28 - H  32          0.01494     0.48583   
   726. BD*(   1) C  30 - H  33          0.01519     0.48514   
   727. BD*(   1) P  34 - C  43          0.03145     0.24877   
   728. BD*(   1) P  34 - C  60          0.03834     0.22404   
   729. BD*(   1) C  35 - H  36          0.03280     0.45848   
   730. BD*(   1) C  35 - H  37          0.01030     0.46613   
   731. BD*(   1) C  35 - H  38          0.01016     0.47902   
   732. BD*(   1) C  39 - H  40          0.01207     0.46150   
   733. BD*(   1) C  39 - H  41          0.03072     0.45680   
   734. BD*(   1) C  39 - H  42          0.00947     0.49794   
   735. BD*(   1) C  43 - C  44          0.02505     0.42076   
   736. BD*(   1) C  43 - C  45          0.02364     0.41496   
   737. BD*(   1) C  43 - H  46          0.03259     0.45767   
   738. BD*(   1) C  44 - C  47          0.01903     0.43281   
   739. BD*(   1) C  44 - H  48          0.01631     0.49457   
   740. BD*(   1) C  44 - H  49          0.02043     0.46292   
   741. BD*(   1) C  45 - C  50          0.01753     0.42688   
   742. BD*(   1) C  45 - H  51          0.01494     0.48515   
   743. BD*(   1) C  45 - H  52          0.01929     0.46476   
   744. BD*(   1) C  47 - C  53          0.01720     0.43052   
   745. BD*(   1) C  47 - H  54          0.01861     0.46128   
   746. BD*(   1) C  47 - H  55          0.01342     0.47911   
   747. BD*(   1) C  50 - C  53          0.01721     0.42918   
   748. BD*(   1) C  50 - H  56          0.01871     0.46164   
   749. BD*(   1) C  50 - H  57          0.01320     0.47869   
   750. BD*(   1) C  53 - H  58          0.01343     0.48005   
   751. BD*(   1) C  53 - H  59          0.01842     0.46291   
   752. BD*(   1) C  60 - C  61          0.02888     0.41299   
   753. BD*(   1) C  60 - C  62          0.02590     0.42383   
   754. BD*(   1) C  60 - H  63          0.02351     0.47744   
   755. BD*(   1) C  61 - C  64          0.02016     0.43259   
   756. BD*(   1) C  61 - H  65          0.01551     0.49074   
   757. BD*(   1) C  61 - H  66          0.01924     0.46338   
   758. BD*(   1) C  62 - C  67          0.01746     0.42573   
   759. BD*(   1) C  62 - H  68          0.01405     0.48981   
   760. BD*(   1) C  62 - H  69          0.01921     0.46911   
   761. BD*(   1) C  64 - C  70          0.01731     0.43414   
   762. BD*(   1) C  64 - H  71          0.01912     0.46899   
   763. BD*(   1) C  64 - H  72          0.01394     0.48088   
   764. BD*(   1) C  67 - C  70          0.01788     0.43341   
   765. BD*(   1) C  67 - H  73          0.01922     0.46427   
   766. BD*(   1) C  67 - H  74          0.01314     0.48010   
   767. BD*(   1) C  70 - H  75          0.01361     0.48096   
   768. BD*(   1) C  70 - H  76          0.01879     0.46345   
   769. BD*(   1) C  77 - C  78          0.02330     0.41823   
   770. BD*(   1) C  77 - C  79          0.02917     0.40697   
   771. BD*(   1) C  77 - H  80          0.02367     0.48358   
   772. BD*(   1) C  78 - C  81          0.01752     0.42821   
   773. BD*(   1) C  78 - H  82          0.01406     0.50487   
   774. BD*(   1) C  78 - H  83          0.01930     0.47017   
   775. BD*(   1) C  79 - C  84          0.01953     0.43175   
   776. BD*(   1) C  79 - H  85          0.01604     0.49265   
   777. BD*(   1) C  79 - H  86          0.01936     0.46483   
   778. BD*(   1) C  81 - C  87          0.01790     0.43439   
   779. BD*(   1) C  81 - H  88          0.01877     0.46371   
   780. BD*(   1) C  81 - H  89          0.01324     0.48133   
   781. BD*(   1) C  84 - C  87          0.01727     0.43320   
   782. BD*(   1) C  84 - H  90          0.01897     0.46325   
   783. BD*(   1) C  84 - H  91          0.01396     0.47998   
   784. BD*(   1) C  87 - H  92          0.01367     0.48138   
   785. BD*(   1) C  87 - H  93          0.01839     0.46456   
   786. BD*(   1) C  94 - C  95          0.02505     0.42821   
   787. BD*(   1) C  94 - C  96          0.02509     0.44931   
   788. BD*(   1) C  94 - H  97          0.03006     0.47549   
   789. BD*(   1) C  95 - C  98          0.01870     0.43637   
   790. BD*(   1) C  95 - H  99          0.02027     0.49674   
   791. BD*(   1) C  95 - H 100          0.01568     0.49222   
   792. BD*(   1) C  96 - C 101          0.01841     0.44487   
   793. BD*(   1) C  96 - H 102          0.01438     0.50469   
   794. BD*(   1) C  96 - H 103          0.02306     0.51092   
   795. BD*(   1) C  98 - C 104          0.01761     0.43672   
   796. BD*(   1) C  98 - H 105          0.01341     0.48354   
   797. BD*(   1) C  98 - H 106          0.01868     0.46773   
   798. BD*(   1) C 101 - C 104          0.01742     0.43905   
   799. BD*(   1) C 101 - H 107          0.01359     0.49026   
   800. BD*(   1) C 101 - H 108          0.01871     0.47121   
   801. BD*(   1) C 104 - H 109          0.01886     0.47302   
   802. BD*(   1) C 104 - H 110          0.01370     0.48509   
       -------------------------------
              Total Lewis  318.11213  ( 98.4782%)
        Valence non-Lewis    4.21120  (  1.3037%)
        Rydberg non-Lewis    0.70469  (  0.2181%)
       -------------------------------
            Total unit  3  323.02801  (100.0000%)
           Charge unit  3   -0.02801


 NATURAL LOCALIZED MOLECULAR ORBITAL (NLMO) ANALYSIS:

 Highest occupied NBOs are not at the beginning of the NBO list;
 The NLMO program is not currently set up to handle this.
 Leave Link  607 at Sat Aug 12 03:30:38 2023, MaxMem=  4026531840 cpu:             228.7 elap:               7.5
 (Enter /sw/arch/Centos8/EB_production/2021/software/Gaussian/g16.c01/l9999.exe)
 Unable to Open any file for archive entry.
 1\1\GINC-TCN87\SP\RPBE1PBE\def2SVPP\C43H63Fe1N1P2\ADARSH\12-Aug-2023\0
 \\#p pop=nbo NMR pbe1pbe/def2svpp empiricaldispersion=gd3bj integral=g
 rid=ultrafinegrid scf=(xqc,maxconventionalcycles=90) nosymm\\Cisa\\0,1
 \C,0,-4.58909,0.39691,-3.13802\C,0,-4.95008,1.76469,-2.974\C,0,-3.8001
 8,2.56081,-3.23671\C,0,-2.72436,1.68474,-3.55967\C,0,-3.21596,0.34806,
 -3.50435\H,0,-5.2434,-0.46212,-2.9873\H,0,-5.92857,2.13665,-2.66982\H,
 0,-3.75306,3.64734,-3.17242\H,0,-1.70546,1.97658,-3.80692\H,0,-2.65079
 ,-0.55674,-3.72406\Fe,0,-3.44328,1.27909,-1.67979\C,0,-3.6123,2.37366,
 0.03909\C,0,-2.25645,1.99159,-0.15973\C,0,-2.19638,0.54783,-0.2172\C,0
 ,-3.55017,0.08224,-0.04666\C,0,-4.40694,1.20048,0.1161\H,0,-3.95539,3.
 40681,0.07472\H,0,-3.89513,-0.94633,-0.0783\H,0,-5.49078,1.15989,0.225
 88\C,0,-1.11093,2.97038,-0.10617\P,0,-0.6988,-0.50279,-0.36065\N,0,-1.
 50997,4.30369,-0.54882\H,0,-0.33305,2.58549,-0.8092\C,0,-0.50016,2.934
 51,1.28678\C,0,0.87212,2.69627,1.49421\C,0,-1.32733,3.1214,2.4011\C,0,
 1.37817,2.70567,2.80353\C,0,-0.81745,3.12555,3.69408\H,0,-2.40181,3.25
 416,2.2476\C,0,0.54679,2.92381,3.89652\H,0,2.43891,2.52287,2.98751\H,0
 ,-1.48656,3.27959,4.54512\H,0,0.96466,2.92428,4.90706\P,0,1.95031,2.37
 823,0.0409\C,0,-1.3179,5.45702,0.29479\H,0,-0.25487,5.7587,0.43381\H,0
 ,-1.84343,6.31028,-0.16725\H,0,-1.75377,5.30918,1.29248\C,0,-1.22225,4
 .56699,-1.93221\H,0,-1.86255,5.38373,-2.30949\H,0,-0.16212,4.8663,-2.1
 141\H,0,-1.43368,3.67103,-2.53059\C,0,3.53652,1.72513,0.74999\C,0,3.33
 75,0.3228,1.32212\C,0,4.69201,1.70878,-0.25548\H,0,3.82196,2.41157,1.5
 6686\C,0,4.60962,-0.20581,1.97701\H,0,2.50667,0.30793,2.04519\H,0,3.04
 087,-0.34283,0.48916\C,0,5.97484,1.20603,0.40487\H,0,4.8611,2.71147,-0
 .68209\H,0,4.43154,1.03436,-1.09174\C,0,5.78707,-0.18178,1.00868\H,0,4
 .84603,0.41487,2.86258\H,0,4.4349,-1.22944,2.35294\H,0,6.27718,1.91719
 ,1.1972\H,0,6.79372,1.1979,-0.33528\H,0,6.71089,-0.50808,1.51637\H,0,5
 .60329,-0.90971,0.19478\C,0,2.28646,4.19402,-0.36451\C,0,3.07034,4.886
 23,0.75834\C,0,2.87564,4.57862,-1.72393\H,0,1.25811,4.59721,-0.34216\C
 ,0,3.07729,6.4031,0.57815\H,0,2.64458,4.63891,1.74411\H,0,4.11484,4.52
 192,0.75276\C,0,2.88494,6.09805,-1.90168\H,0,2.29866,4.13447,-2.54486\
 H,0,3.91138,4.20384,-1.81437\C,0,3.6377,6.80182,-0.78067\H,0,2.04229,6
 .78278,0.67845\H,0,3.66039,6.8676,1.39217\H,0,1.83896,6.46096,-1.92584
 \H,0,3.32444,6.3482,-2.88299\H,0,3.59019,7.89636,-0.91353\H,0,4.70898,
 6.52682,-0.82987\C,0,-1.40695,-2.0357,-1.23875\C,0,-0.42952,-2.95591,-
 1.98488\C,0,-2.28527,-2.96192,-0.37584\H,0,-2.06515,-1.55962,-1.98696\
 C,0,-1.19031,-3.92069,-2.89663\H,0,0.28987,-2.40157,-2.59019\H,0,0.162
 17,-3.53686,-1.25484\C,0,-3.09807,-3.90518,-1.26173\H,0,-2.96125,-2.41
 788,0.29603\H,0,-1.63329,-3.5689,0.27824\C,0,-2.18997,-4.77216,-2.1248
 8\H,0,-1.72343,-3.33272,-3.66989\H,0,-0.47262,-4.56301,-3.43632\H,0,-3
 .77234,-3.30703,-1.90545\H,0,-3.74659,-4.53764,-0.63073\H,0,-2.7858,-5
 .39229,-2.81661\H,0,-1.6377,-5.47436,-1.47176\C,0,-0.4967,-1.21299,1.3
 5532\C,0,0.67944,-2.19105,1.41361\C,0,-0.45428,-0.20279,2.4911\H,0,-1.
 4247,-1.7912,1.4965\C,0,0.77312,-2.86654,2.78086\H,0,1.61488,-1.6472,1
 .20376\H,0,0.58664,-2.96113,0.6303\C,0,-0.37469,-0.90188,3.8449\H,0,-1
 .34494,0.44368,2.4492\H,0,0.41935,0.4536,2.37649\C,0,0.81874,-1.84818,
 3.91488\H,0,1.66043,-3.52309,2.81026\H,0,-0.10659,-3.52433,2.91895\H,0
 ,-0.31804,-0.14316,4.64519\H,0,-1.3062,-1.47417,4.02036\H,0,1.75625,-1
 .26223,3.84403\H,0,0.84745,-2.36412,4.89025\\Version=ES64L-G16RevC.01\
 HF=-3673.6098646\RMSD=4.045e-09\Dipole=-0.0480202,0.2512913,0.4530432\
 Quadrupole=4.4479945,1.5490997,-5.9970942,0.3427166,-0.7180977,2.07676
 06\PG=C01 [X(C43H63Fe1N1P2)]\\@
 The archive entry for this job was punched.


 The mind is not a vessel to be filled but a fire to be kindled.
                                  -- Plutarch
 Job cpu time:       0 days  4 hours 37 minutes 53.7 seconds.
 Elapsed time:       0 days  0 hours  9 minutes 26.9 seconds.
 File lengths (MBytes):  RWF=    592 Int=      0 D2E=      0 Chk=     56 Scr=     32
 Normal termination of Gaussian 16 at Sat Aug 12 03:30:39 2023.
