 Entering Gaussian System, Link 0=g16
 Input=free_ligand_L7_SP.inp
 Output=free_ligand_L7_SP.log
 Initial command:
 /sw/arch/RHEL8/EB_production/2022/software/Gaussian/g16.c02/l1.exe "/scratch-local/adarsh.3962541/Gau-3017321.inp" -scrdir="/scratch-local/adarsh.3962541/"
 Entering Link 1 = /sw/arch/RHEL8/EB_production/2022/software/Gaussian/g16.c02/l1.exe PID=   3017365.
  
 Copyright (c) 1988-2021, Gaussian, Inc.  All Rights Reserved.
  
 This is part of the Gaussian(R) 16 program.  It is based on
 the Gaussian(R) 09 system (copyright 2009, Gaussian, Inc.),
 the Gaussian(R) 03 system (copyright 2003, Gaussian, Inc.),
 the Gaussian(R) 98 system (copyright 1998, Gaussian, Inc.),
 the Gaussian(R) 94 system (copyright 1995, Gaussian, Inc.),
 the Gaussian 92(TM) system (copyright 1992, Gaussian, Inc.),
 the Gaussian 90(TM) system (copyright 1990, Gaussian, Inc.),
 the Gaussian 88(TM) system (copyright 1988, Gaussian, Inc.),
 the Gaussian 86(TM) system (copyright 1986, Carnegie Mellon
 University), and the Gaussian 82(TM) system (copyright 1983,
 Carnegie Mellon University). Gaussian is a federally registered
 trademark of Gaussian, Inc.
  
 This software contains proprietary and confidential information,
 including trade secrets, belonging to Gaussian, Inc.
  
 This software is provided under written license and may be
 used, copied, transmitted, or stored only in accord with that
 written license.
  
 The following legend is applicable only to US Government
 contracts under FAR:
  
                    RESTRICTED RIGHTS LEGEND
  
 Use, reproduction and disclosure by the US Government is
 subject to restrictions as set forth in subparagraphs (a)
 and (c) of the Commercial Computer Software - Restricted
 Rights clause in FAR 52.227-19.
  
 Gaussian, Inc.
 340 Quinnipiac St., Bldg. 40, Wallingford CT 06492
  
  
 ---------------------------------------------------------------
 Warning -- This program may not be used in any manner that
 competes with the business of Gaussian, Inc. or will provide
 assistance to any competitor of Gaussian, Inc.  The licensee
 of this program is prohibited from giving any competitor of
 Gaussian, Inc. access to this program.  By using this program,
 the user acknowledges that Gaussian, Inc. is engaged in the
 business of creating and licensing software in the field of
 computational chemistry and represents and warrants to the
 licensee that it is not a competitor of Gaussian, Inc. and that
 it will not use this program in any manner prohibited above.
 ---------------------------------------------------------------
  

 Cite this work as:
 Gaussian 16, Revision C.02,
 M. J. Frisch, G. W. Trucks, H. B. Schlegel, G. E. Scuseria, 
 M. A. Robb, J. R. Cheeseman, G. Scalmani, V. Barone, 
 G. A. Petersson, H. Nakatsuji, X. Li, M. Caricato, A. V. Marenich, 
 J. Bloino, B. G. Janesko, R. Gomperts, B. Mennucci, H. P. Hratchian, 
 J. V. Ortiz, A. F. Izmaylov, J. L. Sonnenberg, D. Williams-Young, 
 F. Ding, F. Lipparini, F. Egidi, J. Goings, B. Peng, A. Petrone, 
 T. Henderson, D. Ranasinghe, V. G. Zakrzewski, J. Gao, N. Rega, 
 G. Zheng, W. Liang, M. Hada, M. Ehara, K. Toyota, R. Fukuda, 
 J. Hasegawa, M. Ishida, T. Nakajima, Y. Honda, O. Kitao, H. Nakai, 
 T. Vreven, K. Throssell, J. A. Montgomery, Jr., J. E. Peralta, 
 F. Ogliaro, M. J. Bearpark, J. J. Heyd, E. N. Brothers, K. N. Kudin, 
 V. N. Staroverov, T. A. Keith, R. Kobayashi, J. Normand, 
 K. Raghavachari, A. P. Rendell, J. C. Burant, S. S. Iyengar, 
 J. Tomasi, M. Cossi, J. M. Millam, M. Klene, C. Adamo, R. Cammi, 
 J. W. Ochterski, R. L. Martin, K. Morokuma, O. Farkas, 
 J. B. Foresman, and D. J. Fox, Gaussian, Inc., Wallingford CT, 2019.
 
 ******************************************
 Gaussian 16:  ES64L-G16RevC.02  7-Dec-2021
                29-Sep-2023 
 ******************************************
 %nprocshared=32
 Will use up to   32 processors via shared memory.
 %mem=30GB
 %chk=free_ligand_L7.chk
 ----------------------------------------------------------------------
 #p pop=nbo pbe1pbe/def2svpp empiricaldispersion=gd3bj integral=grid=ul
 trafinegrid scf=(xqc,maxconventionalcycles=90) nosymm
 ----------------------------------------------------------------------
 1/38=1,172=1/1;
 2/12=2,15=1,17=6,18=5,40=1/2;
 3/5=43,7=202,11=2,25=1,30=1,74=-13,75=-5,124=41/1,2,3;
 4//1;
 5/5=2,8=3,13=1,38=5,85=90/2,8;
 6/7=2,8=2,9=2,10=2,28=1,40=1/1,7;
 99/5=1,9=1/99;
 Leave Link    1 at Fri Sep 29 19:31:36 2023, MaxMem=  4026531840 cpu:               0.2 elap:               0.8
 (Enter /sw/arch/RHEL8/EB_production/2022/software/Gaussian/g16.c02/l101.exe)
 ----
 Cisa
 ----
 Symbolic Z-matrix:
 Charge =  0 Multiplicity = 1
 P                     0.23349   0.95937  -0.70314 
 C                     1.14701   0.47667  -2.19539 
 C                     0.46556  -0.2247   -3.19241 
 C                     1.13247  -0.72271  -4.31583 
 C                     2.51212  -0.48121  -4.42341 
 C                     3.22215   0.22579  -3.43315 
 C                     2.52231   0.69764  -2.32432 
 C                     0.8434    2.60107  -0.21349 
 C                     0.56762   3.06386   1.08054 
 C                     0.82059   4.38461   1.44631 
 C                     1.3612    5.25455   0.48099 
 C                     1.62223   4.82676  -0.83033 
 C                     1.35271   3.49417  -1.16019 
 P                    -2.50753  -0.85037   0.03073 
 C                    -1.0505   -2.02199   0.1429 
 C                    -1.34102  -3.45385   0.58205 
 C                     0.72114  -0.14866   0.63946 
 C                     0.02875  -1.37222   0.96238 
 C                     0.54678  -1.83568   2.20987 
 C                     1.55093  -0.92781   2.65117 
 C                     1.66951   0.10648   1.6848 
 H                    -0.61276  -0.39461  -3.08279 
 H                     3.06514   1.23415  -1.54035 
 H                     0.12751   2.38987   1.82096 
 H                     1.53494   3.16293  -2.18674 
 H                    -0.70359  -2.05238  -0.90604 
 H                    -0.39362  -4.01669   0.62248 
 H                    -2.00186  -3.96856  -0.13048 
 H                    -1.80621  -3.50736   1.57652 
 H                     2.35689   0.95064   1.72208 
 Fe                    2.03632  -1.70358   0.82321 
 C                     3.12401  -3.42744   0.99504 
 C                     3.9894   -2.29739   0.9502 
 C                     3.76064  -1.61629  -0.27896 
 C                     2.75479  -2.32699  -0.99748 
 C                     2.3655   -3.44654  -0.21137 
 H                     3.0407   -4.13848   1.81734 
 H                     4.26134  -0.7061   -0.6051 
 H                     2.34551  -2.05254  -1.96959 
 H                     1.61241  -4.1862   -0.4835 
 H                     2.15542  -1.03366   3.55189 
 H                     0.26124  -2.75576   2.71812 
 H                     4.68244  -1.99073   1.7339 
 C                    -3.08583  -0.38281   1.73357 
 C                    -3.06213  -1.46806   2.81431 
 C                    -2.34937   0.87094   2.22879 
 H                    -4.14304  -0.09832   1.55083 
 C                    -3.66714  -0.94909   4.11817 
 H                    -2.01348  -1.75899   2.99949 
 H                    -3.59757  -2.37301   2.48692 
 C                    -2.94077   1.38696   3.53652 
 H                    -1.28419   0.61837   2.38235 
 H                    -2.38092   1.65665   1.44902 
 C                    -2.95062   0.30402   4.61011 
 H                    -3.62776  -1.74241   4.88476 
 H                    -4.73897  -0.723     3.95749 
 H                    -2.36947   2.26839   3.87929 
 H                    -3.97552   1.73628   3.35472 
 H                    -3.42469   0.68051   5.53292 
 H                    -1.90713   0.04539   4.87451 
 C                    -3.90443  -1.74652  -0.79403 
 C                    -3.4372   -2.31601  -2.1399 
 C                    -4.71809  -2.76726   0.00734 
 H                    -4.59722  -0.91078  -1.01674 
 C                    -4.61418  -2.84444  -2.95529 
 H                    -2.72388  -3.1423   -1.9658 
 H                    -2.88451  -1.54262  -2.70619 
 C                    -5.88526  -3.29332  -0.82874 
 H                    -4.08124  -3.61191   0.31998 
 H                    -5.10841  -2.3037    0.92868 
 C                    -5.41889  -3.86901  -2.16181 
 H                    -4.24864  -3.28385  -3.89971 
 H                    -5.27244  -1.99906  -3.23645 
 H                    -6.43987  -4.05353  -0.25205 
 H                    -6.59588  -2.46552  -1.0175 
 H                    -6.28426  -4.21617  -2.75197 
 H                    -4.78988  -4.7611   -1.97616 
 C                     2.15309   5.78648  -1.85398 
 O                     1.56179   6.55576   0.82036 
 O                     3.21167  -0.99238  -5.46992 
 C                     3.19725  -0.23524  -6.66041 
 H                     3.59406   0.78385  -6.49417 
 H                     3.84348  -0.76094  -7.37877 
 H                     2.17881  -0.15596  -7.08345 
 C                     2.86638   6.89294   1.23832 
 H                     3.60698   6.73359   0.43276 
 H                     2.84968   7.96037   1.50387 
 H                     3.17145   6.30427   2.12378 
 C                     0.50406   4.89235   2.82175 
 C                     4.70514   0.40374  -3.56544 
 C                     0.40571  -1.51328  -5.36393 
 H                     0.06769  -0.8714   -6.19816 
 H                    -0.48976  -1.99742  -4.94092 
 H                     1.05976  -2.29017  -5.79141 
 H                     4.97124   0.96876  -4.47547 
 H                     5.20963  -0.57474  -3.642 
 H                     5.11729   0.94471  -2.69878 
 H                     3.25552   5.85752  -1.81044 
 H                     1.75313   6.79904  -1.68476 
 H                     1.88667   5.46393  -2.87344 
 H                     1.42253   5.08482   3.40495 
 H                    -0.1008    4.16145   3.3826 
 H                    -0.04534   5.84681   2.77132 
 
 ITRead=  0  0  0  0  0  0  0  0  0  0  0  0  0  0  0  0  0  0  0  0
 ITRead=  0  0  0  0  0  0  0  0  0  0  0  0  0  0  0  0  0  0  0  0
 ITRead=  0  0  0  0  0  0  0  0  0  0  0  0  0  0  0  0  0  0  0  0
 ITRead=  0  0  0  0  0  0  0  0  0  0  0  0  0  0  0  0  0  0  0  0
 ITRead=  0  0  0  0  0  0  0  0  0  0  0  0  0  0  0  0  0  0  0  0
 ITRead=  0  0  0
 MicOpt= -1 -1 -1 -1 -1 -1 -1 -1 -1 -1 -1 -1 -1 -1 -1 -1 -1 -1 -1 -1
 MicOpt= -1 -1 -1 -1 -1 -1 -1 -1 -1 -1 -1 -1 -1 -1 -1 -1 -1 -1 -1 -1
 MicOpt= -1 -1 -1 -1 -1 -1 -1 -1 -1 -1 -1 -1 -1 -1 -1 -1 -1 -1 -1 -1
 MicOpt= -1 -1 -1 -1 -1 -1 -1 -1 -1 -1 -1 -1 -1 -1 -1 -1 -1 -1 -1 -1
 MicOpt= -1 -1 -1 -1 -1 -1 -1 -1 -1 -1 -1 -1 -1 -1 -1 -1 -1 -1 -1 -1
 MicOpt= -1 -1 -1
 NAtoms=    103 NQM=      103 NQMF=       0 NMMI=      0 NMMIF=      0
                NMic=       0 NMicF=      0.
                    Isotopes and Nuclear Properties:
 (Nuclear quadrupole moments (NQMom) in fm**2, nuclear magnetic moments (NMagM)
  in nuclear magnetons)

  Atom         1           2           3           4           5           6           7           8           9          10
 IAtWgt=          31          12          12          12          12          12          12          12          12          12
 AtmWgt=  30.9737634  12.0000000  12.0000000  12.0000000  12.0000000  12.0000000  12.0000000  12.0000000  12.0000000  12.0000000
 NucSpn=           1           0           0           0           0           0           0           0           0           0
 AtZEff=  -0.0000000  -0.0000000  -0.0000000  -0.0000000  -0.0000000  -0.0000000  -0.0000000  -0.0000000  -0.0000000  -0.0000000
 NQMom=    0.0000000   0.0000000   0.0000000   0.0000000   0.0000000   0.0000000   0.0000000   0.0000000   0.0000000   0.0000000
 NMagM=    1.1316000   0.0000000   0.0000000   0.0000000   0.0000000   0.0000000   0.0000000   0.0000000   0.0000000   0.0000000
 AtZNuc=  15.0000000   6.0000000   6.0000000   6.0000000   6.0000000   6.0000000   6.0000000   6.0000000   6.0000000   6.0000000

  Atom        11          12          13          14          15          16          17          18          19          20
 IAtWgt=          12          12          12          31          12          12          12          12          12          12
 AtmWgt=  12.0000000  12.0000000  12.0000000  30.9737634  12.0000000  12.0000000  12.0000000  12.0000000  12.0000000  12.0000000
 NucSpn=           0           0           0           1           0           0           0           0           0           0
 AtZEff=  -0.0000000  -0.0000000  -0.0000000  -0.0000000  -0.0000000  -0.0000000  -0.0000000  -0.0000000  -0.0000000  -0.0000000
 NQMom=    0.0000000   0.0000000   0.0000000   0.0000000   0.0000000   0.0000000   0.0000000   0.0000000   0.0000000   0.0000000
 NMagM=    0.0000000   0.0000000   0.0000000   1.1316000   0.0000000   0.0000000   0.0000000   0.0000000   0.0000000   0.0000000
 AtZNuc=   6.0000000   6.0000000   6.0000000  15.0000000   6.0000000   6.0000000   6.0000000   6.0000000   6.0000000   6.0000000

  Atom        21          22          23          24          25          26          27          28          29          30
 IAtWgt=          12           1           1           1           1           1           1           1           1           1
 AtmWgt=  12.0000000   1.0078250   1.0078250   1.0078250   1.0078250   1.0078250   1.0078250   1.0078250   1.0078250   1.0078250
 NucSpn=           0           1           1           1           1           1           1           1           1           1
 AtZEff=  -0.0000000  -0.0000000  -0.0000000  -0.0000000  -0.0000000  -0.0000000  -0.0000000  -0.0000000  -0.0000000  -0.0000000
 NQMom=    0.0000000   0.0000000   0.0000000   0.0000000   0.0000000   0.0000000   0.0000000   0.0000000   0.0000000   0.0000000
 NMagM=    0.0000000   2.7928460   2.7928460   2.7928460   2.7928460   2.7928460   2.7928460   2.7928460   2.7928460   2.7928460
 AtZNuc=   6.0000000   1.0000000   1.0000000   1.0000000   1.0000000   1.0000000   1.0000000   1.0000000   1.0000000   1.0000000

  Atom        31          32          33          34          35          36          37          38          39          40
 IAtWgt=          56          12          12          12          12          12           1           1           1           1
 AtmWgt=  55.9349393  12.0000000  12.0000000  12.0000000  12.0000000  12.0000000   1.0078250   1.0078250   1.0078250   1.0078250
 NucSpn=           0           0           0           0           0           0           1           1           1           1
 AtZEff=  -0.0000000  -0.0000000  -0.0000000  -0.0000000  -0.0000000  -0.0000000  -0.0000000  -0.0000000  -0.0000000  -0.0000000
 NQMom=    0.0000000   0.0000000   0.0000000   0.0000000   0.0000000   0.0000000   0.0000000   0.0000000   0.0000000   0.0000000
 NMagM=    0.0000000   0.0000000   0.0000000   0.0000000   0.0000000   0.0000000   2.7928460   2.7928460   2.7928460   2.7928460
 AtZNuc=  26.0000000   6.0000000   6.0000000   6.0000000   6.0000000   6.0000000   1.0000000   1.0000000   1.0000000   1.0000000

  Atom        41          42          43          44          45          46          47          48          49          50
 IAtWgt=           1           1           1          12          12          12           1          12           1           1
 AtmWgt=   1.0078250   1.0078250   1.0078250  12.0000000  12.0000000  12.0000000   1.0078250  12.0000000   1.0078250   1.0078250
 NucSpn=           1           1           1           0           0           0           1           0           1           1
 AtZEff=  -0.0000000  -0.0000000  -0.0000000  -0.0000000  -0.0000000  -0.0000000  -0.0000000  -0.0000000  -0.0000000  -0.0000000
 NQMom=    0.0000000   0.0000000   0.0000000   0.0000000   0.0000000   0.0000000   0.0000000   0.0000000   0.0000000   0.0000000
 NMagM=    2.7928460   2.7928460   2.7928460   0.0000000   0.0000000   0.0000000   2.7928460   0.0000000   2.7928460   2.7928460
 AtZNuc=   1.0000000   1.0000000   1.0000000   6.0000000   6.0000000   6.0000000   1.0000000   6.0000000   1.0000000   1.0000000

  Atom        51          52          53          54          55          56          57          58          59          60
 IAtWgt=          12           1           1          12           1           1           1           1           1           1
 AtmWgt=  12.0000000   1.0078250   1.0078250  12.0000000   1.0078250   1.0078250   1.0078250   1.0078250   1.0078250   1.0078250
 NucSpn=           0           1           1           0           1           1           1           1           1           1
 AtZEff=  -0.0000000  -0.0000000  -0.0000000  -0.0000000  -0.0000000  -0.0000000  -0.0000000  -0.0000000  -0.0000000  -0.0000000
 NQMom=    0.0000000   0.0000000   0.0000000   0.0000000   0.0000000   0.0000000   0.0000000   0.0000000   0.0000000   0.0000000
 NMagM=    0.0000000   2.7928460   2.7928460   0.0000000   2.7928460   2.7928460   2.7928460   2.7928460   2.7928460   2.7928460
 AtZNuc=   6.0000000   1.0000000   1.0000000   6.0000000   1.0000000   1.0000000   1.0000000   1.0000000   1.0000000   1.0000000

  Atom        61          62          63          64          65          66          67          68          69          70
 IAtWgt=          12          12          12           1          12           1           1          12           1           1
 AtmWgt=  12.0000000  12.0000000  12.0000000   1.0078250  12.0000000   1.0078250   1.0078250  12.0000000   1.0078250   1.0078250
 NucSpn=           0           0           0           1           0           1           1           0           1           1
 AtZEff=  -0.0000000  -0.0000000  -0.0000000  -0.0000000  -0.0000000  -0.0000000  -0.0000000  -0.0000000  -0.0000000  -0.0000000
 NQMom=    0.0000000   0.0000000   0.0000000   0.0000000   0.0000000   0.0000000   0.0000000   0.0000000   0.0000000   0.0000000
 NMagM=    0.0000000   0.0000000   0.0000000   2.7928460   0.0000000   2.7928460   2.7928460   0.0000000   2.7928460   2.7928460
 AtZNuc=   6.0000000   6.0000000   6.0000000   1.0000000   6.0000000   1.0000000   1.0000000   6.0000000   1.0000000   1.0000000

  Atom        71          72          73          74          75          76          77          78          79          80
 IAtWgt=          12           1           1           1           1           1           1          12          16          16
 AtmWgt=  12.0000000   1.0078250   1.0078250   1.0078250   1.0078250   1.0078250   1.0078250  12.0000000  15.9949146  15.9949146
 NucSpn=           0           1           1           1           1           1           1           0           0           0
 AtZEff=  -0.0000000  -0.0000000  -0.0000000  -0.0000000  -0.0000000  -0.0000000  -0.0000000  -0.0000000  -0.0000000  -0.0000000
 NQMom=    0.0000000   0.0000000   0.0000000   0.0000000   0.0000000   0.0000000   0.0000000   0.0000000   0.0000000   0.0000000
 NMagM=    0.0000000   2.7928460   2.7928460   2.7928460   2.7928460   2.7928460   2.7928460   0.0000000   0.0000000   0.0000000
 AtZNuc=   6.0000000   1.0000000   1.0000000   1.0000000   1.0000000   1.0000000   1.0000000   6.0000000   8.0000000   8.0000000

  Atom        81          82          83          84          85          86          87          88          89          90
 IAtWgt=          12           1           1           1          12           1           1           1          12          12
 AtmWgt=  12.0000000   1.0078250   1.0078250   1.0078250  12.0000000   1.0078250   1.0078250   1.0078250  12.0000000  12.0000000
 NucSpn=           0           1           1           1           0           1           1           1           0           0
 AtZEff=  -0.0000000  -0.0000000  -0.0000000  -0.0000000  -0.0000000  -0.0000000  -0.0000000  -0.0000000  -0.0000000  -0.0000000
 NQMom=    0.0000000   0.0000000   0.0000000   0.0000000   0.0000000   0.0000000   0.0000000   0.0000000   0.0000000   0.0000000
 NMagM=    0.0000000   2.7928460   2.7928460   2.7928460   0.0000000   2.7928460   2.7928460   2.7928460   0.0000000   0.0000000
 AtZNuc=   6.0000000   1.0000000   1.0000000   1.0000000   6.0000000   1.0000000   1.0000000   1.0000000   6.0000000   6.0000000

  Atom        91          92          93          94          95          96          97          98          99         100
 IAtWgt=          12           1           1           1           1           1           1           1           1           1
 AtmWgt=  12.0000000   1.0078250   1.0078250   1.0078250   1.0078250   1.0078250   1.0078250   1.0078250   1.0078250   1.0078250
 NucSpn=           0           1           1           1           1           1           1           1           1           1
 AtZEff=  -0.0000000  -0.0000000  -0.0000000  -0.0000000  -0.0000000  -0.0000000  -0.0000000  -0.0000000  -0.0000000  -0.0000000
 NQMom=    0.0000000   0.0000000   0.0000000   0.0000000   0.0000000   0.0000000   0.0000000   0.0000000   0.0000000   0.0000000
 NMagM=    0.0000000   2.7928460   2.7928460   2.7928460   2.7928460   2.7928460   2.7928460   2.7928460   2.7928460   2.7928460
 AtZNuc=   6.0000000   1.0000000   1.0000000   1.0000000   1.0000000   1.0000000   1.0000000   1.0000000   1.0000000   1.0000000

  Atom       101         102         103
 IAtWgt=           1           1           1
 AtmWgt=   1.0078250   1.0078250   1.0078250
 NucSpn=           1           1           1
 AtZEff=  -0.0000000  -0.0000000  -0.0000000
 NQMom=    0.0000000   0.0000000   0.0000000
 NMagM=    2.7928460   2.7928460   2.7928460
 AtZNuc=   1.0000000   1.0000000   1.0000000
 Leave Link  101 at Fri Sep 29 19:31:37 2023, MaxMem=  4026531840 cpu:               0.1 elap:               0.1
 (Enter /sw/arch/RHEL8/EB_production/2022/software/Gaussian/g16.c02/l202.exe)
 Symmetry turned off by external request.
 Stoichiometry    C42H56FeO2P2
 Framework group  C1[X(C42H56FeO2P2)]
 Deg. of freedom   303
 Full point group                 C1      NOp   1
                          Input orientation:                          
 ---------------------------------------------------------------------
 Center     Atomic      Atomic             Coordinates (Angstroms)
 Number     Number       Type             X           Y           Z
 ---------------------------------------------------------------------
      1         15           0        0.233490    0.959370   -0.703140
      2          6           0        1.147010    0.476670   -2.195390
      3          6           0        0.465560   -0.224700   -3.192410
      4          6           0        1.132470   -0.722710   -4.315830
      5          6           0        2.512120   -0.481210   -4.423410
      6          6           0        3.222150    0.225790   -3.433150
      7          6           0        2.522310    0.697640   -2.324320
      8          6           0        0.843400    2.601070   -0.213490
      9          6           0        0.567620    3.063860    1.080540
     10          6           0        0.820590    4.384610    1.446310
     11          6           0        1.361200    5.254550    0.480990
     12          6           0        1.622230    4.826760   -0.830330
     13          6           0        1.352710    3.494170   -1.160190
     14         15           0       -2.507530   -0.850370    0.030730
     15          6           0       -1.050500   -2.021990    0.142900
     16          6           0       -1.341020   -3.453850    0.582050
     17          6           0        0.721140   -0.148660    0.639460
     18          6           0        0.028750   -1.372220    0.962380
     19          6           0        0.546780   -1.835680    2.209870
     20          6           0        1.550930   -0.927810    2.651170
     21          6           0        1.669510    0.106480    1.684800
     22          1           0       -0.612760   -0.394610   -3.082790
     23          1           0        3.065140    1.234150   -1.540350
     24          1           0        0.127510    2.389870    1.820960
     25          1           0        1.534940    3.162930   -2.186740
     26          1           0       -0.703590   -2.052380   -0.906040
     27          1           0       -0.393620   -4.016690    0.622480
     28          1           0       -2.001860   -3.968560   -0.130480
     29          1           0       -1.806210   -3.507360    1.576520
     30          1           0        2.356890    0.950640    1.722080
     31         26           0        2.036320   -1.703580    0.823210
     32          6           0        3.124010   -3.427440    0.995040
     33          6           0        3.989400   -2.297390    0.950200
     34          6           0        3.760640   -1.616290   -0.278960
     35          6           0        2.754790   -2.326990   -0.997480
     36          6           0        2.365500   -3.446540   -0.211370
     37          1           0        3.040700   -4.138480    1.817340
     38          1           0        4.261340   -0.706100   -0.605100
     39          1           0        2.345510   -2.052540   -1.969590
     40          1           0        1.612410   -4.186200   -0.483500
     41          1           0        2.155420   -1.033660    3.551890
     42          1           0        0.261240   -2.755760    2.718120
     43          1           0        4.682440   -1.990730    1.733900
     44          6           0       -3.085830   -0.382810    1.733570
     45          6           0       -3.062130   -1.468060    2.814310
     46          6           0       -2.349370    0.870940    2.228790
     47          1           0       -4.143040   -0.098320    1.550830
     48          6           0       -3.667140   -0.949090    4.118170
     49          1           0       -2.013480   -1.758990    2.999490
     50          1           0       -3.597570   -2.373010    2.486920
     51          6           0       -2.940770    1.386960    3.536520
     52          1           0       -1.284190    0.618370    2.382350
     53          1           0       -2.380920    1.656650    1.449020
     54          6           0       -2.950620    0.304020    4.610110
     55          1           0       -3.627760   -1.742410    4.884760
     56          1           0       -4.738970   -0.723000    3.957490
     57          1           0       -2.369470    2.268390    3.879290
     58          1           0       -3.975520    1.736280    3.354720
     59          1           0       -3.424690    0.680510    5.532920
     60          1           0       -1.907130    0.045390    4.874510
     61          6           0       -3.904430   -1.746520   -0.794030
     62          6           0       -3.437200   -2.316010   -2.139900
     63          6           0       -4.718090   -2.767260    0.007340
     64          1           0       -4.597220   -0.910780   -1.016740
     65          6           0       -4.614180   -2.844440   -2.955290
     66          1           0       -2.723880   -3.142300   -1.965800
     67          1           0       -2.884510   -1.542620   -2.706190
     68          6           0       -5.885260   -3.293320   -0.828740
     69          1           0       -4.081240   -3.611910    0.319980
     70          1           0       -5.108410   -2.303700    0.928680
     71          6           0       -5.418890   -3.869010   -2.161810
     72          1           0       -4.248640   -3.283850   -3.899710
     73          1           0       -5.272440   -1.999060   -3.236450
     74          1           0       -6.439870   -4.053530   -0.252050
     75          1           0       -6.595880   -2.465520   -1.017500
     76          1           0       -6.284260   -4.216170   -2.751970
     77          1           0       -4.789880   -4.761100   -1.976160
     78          6           0        2.153090    5.786480   -1.853980
     79          8           0        1.561790    6.555760    0.820360
     80          8           0        3.211670   -0.992380   -5.469920
     81          6           0        3.197250   -0.235240   -6.660410
     82          1           0        3.594060    0.783850   -6.494170
     83          1           0        3.843480   -0.760940   -7.378770
     84          1           0        2.178810   -0.155960   -7.083450
     85          6           0        2.866380    6.892940    1.238320
     86          1           0        3.606980    6.733590    0.432760
     87          1           0        2.849680    7.960370    1.503870
     88          1           0        3.171450    6.304270    2.123780
     89          6           0        0.504060    4.892350    2.821750
     90          6           0        4.705140    0.403740   -3.565440
     91          6           0        0.405710   -1.513280   -5.363930
     92          1           0        0.067690   -0.871400   -6.198160
     93          1           0       -0.489760   -1.997420   -4.940920
     94          1           0        1.059760   -2.290170   -5.791410
     95          1           0        4.971240    0.968760   -4.475470
     96          1           0        5.209630   -0.574740   -3.642000
     97          1           0        5.117290    0.944710   -2.698780
     98          1           0        3.255520    5.857520   -1.810440
     99          1           0        1.753130    6.799040   -1.684760
    100          1           0        1.886670    5.463930   -2.873440
    101          1           0        1.422530    5.084820    3.404950
    102          1           0       -0.100800    4.161450    3.382600
    103          1           0       -0.045340    5.846810    2.771320
 ---------------------------------------------------------------------
 Rotational constants (GHZ):           0.0627922           0.0524677           0.0407243
 Leave Link  202 at Fri Sep 29 19:31:37 2023, MaxMem=  4026531840 cpu:               0.1 elap:               0.0
 (Enter /sw/arch/RHEL8/EB_production/2022/software/Gaussian/g16.c02/l301.exe)
 Standard basis: def2SVPP (5D, 7F)
 Ernie: Thresh=  0.10000D-02 Tol=  0.10000D-05 Strict=F.
   788 basis functions,  1469 primitive gaussians,   836 cartesian basis functions
   190 alpha electrons      190 beta electrons
       nuclear repulsion energy      7742.9868674096 Hartrees.
 IExCor= 1009 DFT=T Ex+Corr=PBE1PBE ExCW=0 ScaHFX=  0.250000
 ScaDFX=  0.750000  0.750000  1.000000  1.000000 ScalE2=  1.000000  1.000000
 IRadAn=      5 IRanWt=     -1 IRanGd=            0 ICorTp=0 IEmpDi=141
 NAtoms=  103 NActive=  103 NUniq=  103 SFac= 1.00D+00 NAtFMM=   60 NAOKFM=T Big=T
 Integral buffers will be    131072 words long.
 Raffenetti 2 integral format.
 Two-electron integral symmetry is turned off.
 R6Disp:  Grimme-D3(BJ) Dispersion energy=       -0.1506557514 Hartrees.
 Nuclear repulsion after empirical dispersion term =     7742.8362116582 Hartrees.
 Leave Link  301 at Fri Sep 29 19:31:37 2023, MaxMem=  4026531840 cpu:               0.1 elap:               0.1
 (Enter /sw/arch/RHEL8/EB_production/2022/software/Gaussian/g16.c02/l302.exe)
 NPDir=0 NMtPBC=     1 NCelOv=     1 NCel=       1 NClECP=     1 NCelD=      1
         NCelK=      1 NCelE2=     1 NClLst=     1 CellRange=     0.0.
 One-electron integrals computed using PRISM.
   1 Symmetry operations used in ECPInt.
 ECPInt:  NShTT=   81003 NPrTT=  334162 LenC2=   67488 LenP2D=  169614.
 LDataN:  DoStor=T MaxTD1= 4 Len=   56
 NBasis=   788 RedAO= T EigKep=  1.85D-04  NBF=   788
 NBsUse=   788 1.00D-06 EigRej= -1.00D+00 NBFU=   788
 Precomputing XC quadrature grid using
 IXCGrd= 4 IRadAn=           5 IRanWt=          -1 IRanGd=           0 AccXCQ= 0.00D+00.
 Generated NRdTot=       0 NPtTot=           0 NUsed=           0 NTot=          32
 NSgBfM=   799   798   799   799   799 MxSgAt=   103 MxSgA2=   103.
 Leave Link  302 at Fri Sep 29 19:31:38 2023, MaxMem=  4026531840 cpu:              22.2 elap:               1.3
 (Enter /sw/arch/RHEL8/EB_production/2022/software/Gaussian/g16.c02/l303.exe)
 DipDrv:  MaxL=1.
 Leave Link  303 at Fri Sep 29 19:31:38 2023, MaxMem=  4026531840 cpu:               0.5 elap:               0.1
 (Enter /sw/arch/RHEL8/EB_production/2022/software/Gaussian/g16.c02/l401.exe)
 ExpMin= 3.37D-02 ExpMax= 6.09D+04 ExpMxC= 9.15D+03 IAcc=3 IRadAn=         5 AccDes= 0.00D+00
 Harris functional with IExCor= 1009 and IRadAn=       5 diagonalized for initial guess.
 HarFok:  IExCor= 1009 AccDes= 0.00D+00 IRadAn=         5 IDoV= 1 UseB2=F ITyADJ=14
 ICtDFT=  3500011 ScaDFX=  1.000000  1.000000  1.000000  1.000000
 FoFCou: FMM=F IPFlag=           0 FMFlag=      100000 FMFlg1=        2001
         NFxFlg=           0 DoJE=T BraDBF=F KetDBF=T FulRan=T
         wScrn=  0.000000 ICntrl=       500 IOpCl=  0 I1Cent=   200000004 NGrid=           0
         NMat0=    1 NMatS0=      1 NMatT0=    0 NMatD0=    1 NMtDS0=    0 NMtDT0=    0
 Symmetry not used in FoFCou.
 Harris En= -3727.34901291351    
 JPrj=0 DoOrth=F DoCkMO=F.
 Leave Link  401 at Fri Sep 29 19:31:42 2023, MaxMem=  4026531840 cpu:              92.9 elap:               3.4
 (Enter /sw/arch/RHEL8/EB_production/2022/software/Gaussian/g16.c02/l502.exe)
 Two-electron integral symmetry not used.
 Closed shell SCF:
 Using DIIS extrapolation, IDIIS=  1040.
 NGot=  4026531840 LenX=  4025096152 LenY=  4024396420
 Requested convergence on RMS density matrix=1.00D-08 within  90 cycles.
 Requested convergence on MAX density matrix=1.00D-06.
 Requested convergence on             energy=1.00D-06.
 No special actions if energy rises.
 Fock matrices will be formed incrementally for  20 cycles.

 Cycle   1  Pass 1  IDiag  1:
 FoFJK:  IHMeth= 1 ICntrl=       0 DoSepK=F KAlg= 0 I1Cent=           0 FoldK=F
 IRaf= 990000000 NMat=       1 IRICut=       1 DoRegI=T DoRafI=F ISym2E= 0 IDoP0=0 IntGTp=1.
 FoFCou: FMM=T IPFlag=           0 FMFlag=      100000 FMFlg1=        2001
         NFxFlg=           0 DoJE=F BraDBF=F KetDBF=F FulRan=T
         wScrn=  0.000000 ICntrl=         0 IOpCl=  0 I1Cent=           0 NGrid=           0
         NMat0=    1 NMatS0=      1 NMatT0=    0 NMatD0=    1 NMtDS0=    0 NMtDT0=    0
 Symmetry not used in FoFCou.
 FMM levels:  10  Number of levels for PrismC:   9
 E= -3725.71807897632    
 DIIS: error= 2.15D-02 at cycle   1 NSaved=   1.
 NSaved= 1 IEnMin= 1 EnMin= -3725.71807897632     IErMin= 1 ErrMin= 2.15D-02
 ErrMax= 2.15D-02  0.00D+00 EMaxC= 1.00D-01 BMatC= 1.07D+00 BMatP= 1.07D+00
 IDIUse=3 WtCom= 7.85D-01 WtEn= 2.15D-01
 Coeff-Com:  0.100D+01
 Coeff-En:   0.100D+01
 Coeff:      0.100D+01
 Gap=     0.189 Goal=   None    Shift=    0.000
 GapD=    0.189 DampG=1.000 DampE=0.250 DampFc=0.2500 IDamp=-1.
 Damping current iteration by 2.50D-01
 RMSDP=3.73D-03 MaxDP=2.13D-01              OVMax= 1.66D-01

 Cycle   2  Pass 1  IDiag  1:
 RMSU=  8.93D-04    CP:  9.82D-01
 E= -3726.12546781464     Delta-E=       -0.407388838319 Rises=F Damp=T
 DIIS: error= 1.09D-02 at cycle   2 NSaved=   2.
 NSaved= 2 IEnMin= 2 EnMin= -3726.12546781464     IErMin= 2 ErrMin= 1.09D-02
 ErrMax= 1.09D-02  0.00D+00 EMaxC= 1.00D-01 BMatC= 2.72D-01 BMatP= 1.07D+00
 IDIUse=3 WtCom= 8.91D-01 WtEn= 1.09D-01
 Coeff-Com: -0.642D+00 0.164D+01
 Coeff-En:   0.000D+00 0.100D+01
 Coeff:     -0.572D+00 0.157D+01
 Gap=     0.238 Goal=   None    Shift=    0.000
 RMSDP=3.46D-03 MaxDP=3.72D-01 DE=-4.07D-01 OVMax= 4.38D-01

 Cycle   3  Pass 1  IDiag  1:
 RMSU=  3.41D-03    CP:  9.80D-01  1.72D+00
 E= -3725.22592892886     Delta-E=        0.899538885777 Rises=F Damp=F
 DIIS: error= 9.29D-02 at cycle   3 NSaved=   3.
 NSaved= 3 IEnMin= 2 EnMin= -3726.12546781464     IErMin= 2 ErrMin= 1.09D-02
 ErrMax= 9.29D-02  0.00D+00 EMaxC= 1.00D-01 BMatC= 2.60D+00 BMatP= 2.72D-01
 IDIUse=2 WtCom= 0.00D+00 WtEn= 1.00D+00
 Coeff-En:   0.000D+00 0.749D+00 0.251D+00
 Coeff:      0.000D+00 0.749D+00 0.251D+00
 Gap=     0.399 Goal=   None    Shift=    0.000
 RMSDP=4.96D-03 MaxDP=4.19D-01 DE= 9.00D-01 OVMax= 4.33D-01

 Cycle   4  Pass 1  IDiag  1:
 RMSU=  1.70D-03    CP:  9.26D-01  2.71D+00 -3.24D-01
 E= -3724.33777089570     Delta-E=        0.888158033160 Rises=F Damp=F
 DIIS: error= 9.52D-02 at cycle   4 NSaved=   4.
 NSaved= 4 IEnMin= 2 EnMin= -3726.12546781464     IErMin= 2 ErrMin= 1.09D-02
 ErrMax= 9.52D-02  0.00D+00 EMaxC= 1.00D-01 BMatC= 4.09D+00 BMatP= 2.72D-01
 IDIUse=2 WtCom= 0.00D+00 WtEn= 1.00D+00
 EnCoef did     1 forward-backward iterations
 Coeff-En:   0.595D-03 0.000D+00 0.564D+00 0.436D+00
 Coeff:      0.595D-03 0.000D+00 0.564D+00 0.436D+00
 Gap=     0.087 Goal=   None    Shift=    0.000
 RMSDP=2.04D-03 MaxDP=2.46D-01 DE= 8.88D-01 OVMax= 3.11D-01

 Cycle   5  Pass 1  IDiag  1:
 RMSU=  7.76D-04    CP:  9.57D-01  1.59D+00  4.49D-02  4.90D-01
 E= -3726.73359273138     Delta-E=       -2.395821835678 Rises=F Damp=F
 DIIS: error= 1.54D-02 at cycle   5 NSaved=   5.
 NSaved= 5 IEnMin= 5 EnMin= -3726.73359273138     IErMin= 2 ErrMin= 1.09D-02
 ErrMax= 1.54D-02  0.00D+00 EMaxC= 1.00D-01 BMatC= 1.75D-01 BMatP= 2.72D-01
 IDIUse=3 WtCom= 8.46D-01 WtEn= 1.54D-01
 Coeff-Com: -0.596D+00 0.814D+00 0.130D+00-0.116D+00 0.768D+00
 Coeff-En:   0.000D+00 0.000D+00 0.147D+00 0.000D+00 0.853D+00
 Coeff:     -0.504D+00 0.689D+00 0.132D+00-0.985D-01 0.781D+00
 Gap=     0.157 Goal=   None    Shift=    0.000
 RMSDP=7.49D-04 MaxDP=8.80D-02 DE=-2.40D+00 OVMax= 5.81D-02

 Cycle   6  Pass 1  IDiag  1:
 RMSU=  2.61D-04    CP:  9.57D-01  2.05D+00  1.66D-01  2.57D-01  9.69D-01
 E= -3726.86891260989     Delta-E=       -0.135319878511 Rises=F Damp=F
 DIIS: error= 5.57D-03 at cycle   6 NSaved=   6.
 NSaved= 6 IEnMin= 6 EnMin= -3726.86891260989     IErMin= 6 ErrMin= 5.57D-03
 ErrMax= 5.57D-03  0.00D+00 EMaxC= 1.00D-01 BMatC= 1.21D-02 BMatP= 1.75D-01
 IDIUse=3 WtCom= 9.44D-01 WtEn= 5.57D-02
 Coeff-Com: -0.143D+00 0.196D+00 0.531D-01-0.570D-01 0.252D+00 0.699D+00
 Coeff-En:   0.000D+00 0.000D+00 0.000D+00 0.000D+00 0.000D+00 0.100D+01
 Coeff:     -0.135D+00 0.185D+00 0.501D-01-0.538D-01 0.238D+00 0.716D+00
 Gap=     0.152 Goal=   None    Shift=    0.000
 RMSDP=1.86D-04 MaxDP=1.64D-02 DE=-1.35D-01 OVMax= 1.88D-02

 Cycle   7  Pass 1  IDiag  1:
 RMSU=  1.38D-04    CP:  9.58D-01  1.98D+00  1.71D-01  2.43D-01  1.01D+00
                    CP:  6.32D-01
 E= -3726.87457736316     Delta-E=       -0.005664753267 Rises=F Damp=F
 DIIS: error= 2.11D-03 at cycle   7 NSaved=   7.
 NSaved= 7 IEnMin= 7 EnMin= -3726.87457736316     IErMin= 7 ErrMin= 2.11D-03
 ErrMax= 2.11D-03  0.00D+00 EMaxC= 1.00D-01 BMatC= 2.88D-03 BMatP= 1.21D-02
 IDIUse=3 WtCom= 9.79D-01 WtEn= 2.11D-02
 Coeff-Com:  0.666D-01-0.903D-01 0.968D-02-0.117D-01-0.412D-01 0.484D+00
 Coeff-Com:  0.583D+00
 Coeff-En:   0.000D+00 0.000D+00 0.000D+00 0.000D+00 0.000D+00 0.000D+00
 Coeff-En:   0.100D+01
 Coeff:      0.652D-01-0.884D-01 0.947D-02-0.114D-01-0.404D-01 0.473D+00
 Coeff:      0.592D+00
 Gap=     0.150 Goal=   None    Shift=    0.000
 RMSDP=1.05D-04 MaxDP=7.50D-03 DE=-5.66D-03 OVMax= 1.19D-02

 Cycle   8  Pass 1  IDiag  1:
 RMSU=  5.15D-05    CP:  9.58D-01  1.98D+00  1.79D-01  2.36D-01  1.02D+00
                    CP:  8.30D-01  4.99D-01
 E= -3726.87676319886     Delta-E=       -0.002185835705 Rises=F Damp=F
 DIIS: error= 5.92D-04 at cycle   8 NSaved=   8.
 NSaved= 8 IEnMin= 8 EnMin= -3726.87676319886     IErMin= 8 ErrMin= 5.92D-04
 ErrMax= 5.92D-04  0.00D+00 EMaxC= 1.00D-01 BMatC= 2.88D-04 BMatP= 2.88D-03
 IDIUse=3 WtCom= 9.94D-01 WtEn= 5.92D-03
 Coeff-Com:  0.617D-01-0.854D-01 0.617D-03 0.882D-04-0.581D-01 0.182D+00
 Coeff-Com:  0.350D+00 0.549D+00
 Coeff-En:   0.000D+00 0.000D+00 0.000D+00 0.000D+00 0.000D+00 0.000D+00
 Coeff-En:   0.000D+00 0.100D+01
 Coeff:      0.614D-01-0.848D-01 0.613D-03 0.877D-04-0.578D-01 0.180D+00
 Coeff:      0.348D+00 0.552D+00
 Gap=     0.150 Goal=   None    Shift=    0.000
 RMSDP=3.37D-05 MaxDP=3.75D-03 DE=-2.19D-03 OVMax= 2.82D-03

 Cycle   9  Pass 1  IDiag  1:
 RMSU=  1.73D-05    CP:  9.58D-01  1.97D+00  1.82D-01  2.34D-01  1.03D+00
                    CP:  8.27D-01  6.17D-01  5.96D-01
 E= -3726.87701737626     Delta-E=       -0.000254177392 Rises=F Damp=F
 DIIS: error= 7.21D-05 at cycle   9 NSaved=   9.
 NSaved= 9 IEnMin= 9 EnMin= -3726.87701737626     IErMin= 9 ErrMin= 7.21D-05
 ErrMax= 7.21D-05  0.00D+00 EMaxC= 1.00D-01 BMatC= 8.57D-06 BMatP= 2.88D-04
 IDIUse=1 WtCom= 1.00D+00 WtEn= 0.00D+00
 Coeff-Com:  0.210D-01-0.284D-01-0.447D-03 0.776D-03-0.218D-01 0.428D-01
 Coeff-Com:  0.109D+00 0.255D+00 0.622D+00
 Coeff:      0.210D-01-0.284D-01-0.447D-03 0.776D-03-0.218D-01 0.428D-01
 Coeff:      0.109D+00 0.255D+00 0.622D+00
 Gap=     0.150 Goal=   None    Shift=    0.000
 RMSDP=8.12D-06 MaxDP=6.35D-04 DE=-2.54D-04 OVMax= 7.73D-04

 Cycle  10  Pass 1  IDiag  1:
 RMSU=  6.59D-06    CP:  9.58D-01  1.97D+00  1.83D-01  2.33D-01  1.03D+00
                    CP:  8.33D-01  6.04D-01  6.41D-01  8.17D-01
 E= -3726.87702225757     Delta-E=       -0.000004881318 Rises=F Damp=F
 DIIS: error= 1.05D-04 at cycle  10 NSaved=  10.
 NSaved=10 IEnMin=10 EnMin= -3726.87702225757     IErMin= 9 ErrMin= 7.21D-05
 ErrMax= 1.05D-04  0.00D+00 EMaxC= 1.00D-01 BMatC= 5.51D-06 BMatP= 8.57D-06
 IDIUse=1 WtCom= 1.00D+00 WtEn= 0.00D+00
 Coeff-Com:  0.495D-02-0.643D-02-0.475D-03 0.393D-03-0.544D-02 0.820D-02
 Coeff-Com:  0.274D-01 0.891D-01 0.373D+00 0.509D+00
 Coeff:      0.495D-02-0.643D-02-0.475D-03 0.393D-03-0.544D-02 0.820D-02
 Coeff:      0.274D-01 0.891D-01 0.373D+00 0.509D+00
 Gap=     0.150 Goal=   None    Shift=    0.000
 RMSDP=3.92D-06 MaxDP=2.49D-04 DE=-4.88D-06 OVMax= 3.86D-04

 Cycle  11  Pass 1  IDiag  1:
 RMSU=  1.89D-06    CP:  9.58D-01  1.97D+00  1.82D-01  2.34D-01  1.03D+00
                    CP:  8.31D-01  6.09D-01  6.44D-01  8.69D-01  5.77D-01
 E= -3726.87702561506     Delta-E=       -0.000003357489 Rises=F Damp=F
 DIIS: error= 6.25D-05 at cycle  11 NSaved=  11.
 NSaved=11 IEnMin=11 EnMin= -3726.87702561506     IErMin=11 ErrMin= 6.25D-05
 ErrMax= 6.25D-05  0.00D+00 EMaxC= 1.00D-01 BMatC= 1.43D-06 BMatP= 5.51D-06
 IDIUse=1 WtCom= 1.00D+00 WtEn= 0.00D+00
 Coeff-Com:  0.967D-03-0.117D-02-0.338D-03 0.165D-03-0.935D-03 0.268D-02
 Coeff-Com:  0.823D-02 0.325D-01 0.172D+00 0.294D+00 0.492D+00
 Coeff:      0.967D-03-0.117D-02-0.338D-03 0.165D-03-0.935D-03 0.268D-02
 Coeff:      0.823D-02 0.325D-01 0.172D+00 0.294D+00 0.492D+00
 Gap=     0.150 Goal=   None    Shift=    0.000
 RMSDP=1.66D-06 MaxDP=1.57D-04 DE=-3.36D-06 OVMax= 1.29D-04

 Cycle  12  Pass 1  IDiag  1:
 RMSU=  8.82D-07    CP:  9.58D-01  1.97D+00  1.82D-01  2.34D-01  1.03D+00
                    CP:  8.30D-01  6.07D-01  6.46D-01  8.73D-01  6.47D-01
                    CP:  7.87D-01
 E= -3726.87702637754     Delta-E=       -0.000000762477 Rises=F Damp=F
 DIIS: error= 3.06D-05 at cycle  12 NSaved=  12.
 NSaved=12 IEnMin=12 EnMin= -3726.87702637754     IErMin=12 ErrMin= 3.06D-05
 ErrMax= 3.06D-05  0.00D+00 EMaxC= 1.00D-01 BMatC= 3.26D-07 BMatP= 1.43D-06
 IDIUse=1 WtCom= 1.00D+00 WtEn= 0.00D+00
 Coeff-Com: -0.400D-03 0.531D-03-0.169D-03 0.294D-04 0.678D-03 0.894D-03
 Coeff-Com:  0.246D-03 0.179D-02 0.236D-01 0.575D-01 0.245D+00 0.670D+00
 Coeff:     -0.400D-03 0.531D-03-0.169D-03 0.294D-04 0.678D-03 0.894D-03
 Coeff:      0.246D-03 0.179D-02 0.236D-01 0.575D-01 0.245D+00 0.670D+00
 Gap=     0.150 Goal=   None    Shift=    0.000
 RMSDP=1.18D-06 MaxDP=8.02D-05 DE=-7.62D-07 OVMax= 1.16D-04

 Cycle  13  Pass 1  IDiag  1:
 RMSU=  4.41D-07    CP:  9.58D-01  1.97D+00  1.82D-01  2.34D-01  1.03D+00
                    CP:  8.30D-01  6.07D-01  6.48D-01  8.84D-01  6.63D-01
                    CP:  9.51D-01  9.58D-01
 E= -3726.87702658545     Delta-E=       -0.000000207914 Rises=F Damp=F
 DIIS: error= 8.57D-06 at cycle  13 NSaved=  13.
 NSaved=13 IEnMin=13 EnMin= -3726.87702658545     IErMin=13 ErrMin= 8.57D-06
 ErrMax= 8.57D-06  0.00D+00 EMaxC= 1.00D-01 BMatC= 2.48D-08 BMatP= 3.26D-07
 IDIUse=1 WtCom= 1.00D+00 WtEn= 0.00D+00
 Coeff-Com: -0.371D-03 0.461D-03-0.285D-04-0.158D-04 0.486D-03-0.129D-04
 Coeff-Com: -0.144D-02-0.613D-02-0.300D-01-0.503D-01-0.290D-01 0.340D+00
 Coeff-Com:  0.776D+00
 Coeff:     -0.371D-03 0.461D-03-0.285D-04-0.158D-04 0.486D-03-0.129D-04
 Coeff:     -0.144D-02-0.613D-02-0.300D-01-0.503D-01-0.290D-01 0.340D+00
 Coeff:      0.776D+00
 Gap=     0.150 Goal=   None    Shift=    0.000
 RMSDP=6.97D-07 MaxDP=5.99D-05 DE=-2.08D-07 OVMax= 8.22D-05

 Cycle  14  Pass 1  IDiag  1:
 RMSU=  2.33D-07    CP:  9.58D-01  1.97D+00  1.81D-01  2.34D-01  1.03D+00
                    CP:  8.30D-01  6.06D-01  6.48D-01  8.93D-01  6.80D-01
                    CP:  1.02D+00  1.28D+00  1.11D+00
 E= -3726.87702661201     Delta-E=       -0.000000026559 Rises=F Damp=F
 DIIS: error= 1.94D-06 at cycle  14 NSaved=  14.
 NSaved=14 IEnMin=14 EnMin= -3726.87702661201     IErMin=14 ErrMin= 1.94D-06
 ErrMax= 1.94D-06  0.00D+00 EMaxC= 1.00D-01 BMatC= 2.44D-09 BMatP= 2.48D-08
 IDIUse=1 WtCom= 1.00D+00 WtEn= 0.00D+00
 Coeff-Com: -0.903D-04 0.106D-03 0.136D-04-0.103D-04 0.695D-04-0.236D-03
 Coeff-Com: -0.762D-03-0.327D-02-0.192D-01-0.372D-01-0.641D-01 0.478D-01
 Coeff-Com:  0.444D+00 0.633D+00
 Coeff:     -0.903D-04 0.106D-03 0.136D-04-0.103D-04 0.695D-04-0.236D-03
 Coeff:     -0.762D-03-0.327D-02-0.192D-01-0.372D-01-0.641D-01 0.478D-01
 Coeff:      0.444D+00 0.633D+00
 Gap=     0.150 Goal=   None    Shift=    0.000
 RMSDP=2.06D-07 MaxDP=2.00D-05 DE=-2.66D-08 OVMax= 4.29D-05

 Cycle  15  Pass 1  IDiag  1:
 RMSU=  1.10D-07    CP:  9.58D-01  1.97D+00  1.81D-01  2.34D-01  1.03D+00
                    CP:  8.30D-01  6.06D-01  6.48D-01  8.94D-01  6.83D-01
                    CP:  1.07D+00  1.36D+00  1.37D+00  1.02D+00
 E= -3726.87702661720     Delta-E=       -0.000000005186 Rises=F Damp=F
 DIIS: error= 1.59D-06 at cycle  15 NSaved=  15.
 NSaved=15 IEnMin=15 EnMin= -3726.87702661720     IErMin=15 ErrMin= 1.59D-06
 ErrMax= 1.59D-06  0.00D+00 EMaxC= 1.00D-01 BMatC= 1.12D-09 BMatP= 2.44D-09
 IDIUse=1 WtCom= 1.00D+00 WtEn= 0.00D+00
 Coeff-Com:  0.381D-05-0.487D-05 0.121D-04-0.248D-05-0.360D-04-0.181D-03
 Coeff-Com: -0.234D-03-0.585D-03-0.312D-02-0.637D-02-0.170D-01-0.253D-01
 Coeff-Com:  0.441D-01 0.235D+00 0.773D+00
 Coeff:      0.381D-05-0.487D-05 0.121D-04-0.248D-05-0.360D-04-0.181D-03
 Coeff:     -0.234D-03-0.585D-03-0.312D-02-0.637D-02-0.170D-01-0.253D-01
 Coeff:      0.441D-01 0.235D+00 0.773D+00
 Gap=     0.150 Goal=   None    Shift=    0.000
 RMSDP=1.22D-07 MaxDP=1.39D-05 DE=-5.19D-09 OVMax= 2.69D-05

 Cycle  16  Pass 1  IDiag  1:
 RMSU=  5.55D-08    CP:  9.58D-01  1.97D+00  1.81D-01  2.34D-01  1.03D+00
                    CP:  8.30D-01  6.06D-01  6.48D-01  8.95D-01  6.84D-01
                    CP:  1.09D+00  1.41D+00  1.47D+00  1.25D+00  1.39D+00
 E= -3726.87702661903     Delta-E=       -0.000000001830 Rises=F Damp=F
 DIIS: error= 7.45D-07 at cycle  16 NSaved=  16.
 NSaved=16 IEnMin=16 EnMin= -3726.87702661903     IErMin=16 ErrMin= 7.45D-07
 ErrMax= 7.45D-07  0.00D+00 EMaxC= 1.00D-01 BMatC= 2.30D-10 BMatP= 1.12D-09
 IDIUse=1 WtCom= 1.00D+00 WtEn= 0.00D+00
 Coeff-Com:  0.398D-04-0.473D-04 0.329D-05 0.246D-05-0.427D-04 0.853D-05
 Coeff-Com:  0.187D-03 0.108D-02 0.702D-02 0.143D-01 0.230D-01-0.308D-01
 Coeff-Com: -0.203D+00-0.195D+00 0.401D+00 0.982D+00
 Coeff:      0.398D-04-0.473D-04 0.329D-05 0.246D-05-0.427D-04 0.853D-05
 Coeff:      0.187D-03 0.108D-02 0.702D-02 0.143D-01 0.230D-01-0.308D-01
 Coeff:     -0.203D+00-0.195D+00 0.401D+00 0.982D+00
 Gap=     0.150 Goal=   None    Shift=    0.000
 RMSDP=1.31D-07 MaxDP=1.54D-05 DE=-1.83D-09 OVMax= 2.97D-05

 Cycle  17  Pass 1  IDiag  1:
 RMSU=  3.08D-08    CP:  9.58D-01  1.97D+00  1.81D-01  2.34D-01  1.03D+00
                    CP:  8.30D-01  6.06D-01  6.48D-01  8.95D-01  6.87D-01
                    CP:  1.11D+00  1.47D+00  1.59D+00  1.48D+00  2.00D+00
                    CP:  1.44D+00
 E= -3726.87702662009     Delta-E=       -0.000000001059 Rises=F Damp=F
 DIIS: error= 2.82D-07 at cycle  17 NSaved=  17.
 NSaved=17 IEnMin=17 EnMin= -3726.87702662009     IErMin=17 ErrMin= 2.82D-07
 ErrMax= 2.82D-07  0.00D+00 EMaxC= 1.00D-01 BMatC= 4.97D-11 BMatP= 2.30D-10
 IDIUse=1 WtCom= 1.00D+00 WtEn= 0.00D+00
 Coeff-Com:  0.154D-04-0.177D-04 0.499D-07 0.109D-05-0.537D-05 0.612D-04
 Coeff-Com:  0.142D-03 0.582D-03 0.377D-02 0.799D-02 0.146D-01-0.985D-02
 Coeff-Com: -0.114D+00-0.154D+00 0.120D-01 0.519D+00 0.719D+00
 Coeff:      0.154D-04-0.177D-04 0.499D-07 0.109D-05-0.537D-05 0.612D-04
 Coeff:      0.142D-03 0.582D-03 0.377D-02 0.799D-02 0.146D-01-0.985D-02
 Coeff:     -0.114D+00-0.154D+00 0.120D-01 0.519D+00 0.719D+00
 Gap=     0.150 Goal=   None    Shift=    0.000
 RMSDP=5.12D-08 MaxDP=5.96D-06 DE=-1.06D-09 OVMax= 1.16D-05

 Cycle  18  Pass 1  IDiag  1:
 RMSU=  1.41D-08    CP:  9.58D-01  1.97D+00  1.81D-01  2.34D-01  1.03D+00
                    CP:  8.30D-01  6.06D-01  6.48D-01  8.95D-01  6.88D-01
                    CP:  1.12D+00  1.49D+00  1.63D+00  1.58D+00  2.22D+00
                    CP:  1.69D+00  8.73D-01
 E= -3726.87702661995     Delta-E=        0.000000000136 Rises=F Damp=F
 DIIS: error= 1.63D-07 at cycle  18 NSaved=  18.
 NSaved=18 IEnMin=17 EnMin= -3726.87702662009     IErMin=18 ErrMin= 1.63D-07
 ErrMax= 1.63D-07  0.00D+00 EMaxC= 1.00D-01 BMatC= 1.41D-11 BMatP= 4.97D-11
 IDIUse=1 WtCom= 1.00D+00 WtEn= 0.00D+00
 Coeff-Com:  0.173D-05-0.176D-05-0.209D-06 0.600D-07 0.555D-05 0.368D-04
 Coeff-Com:  0.488D-04 0.133D-03 0.879D-03 0.204D-02 0.423D-02-0.150D-02
 Coeff-Com: -0.325D-01-0.548D-01-0.524D-01 0.142D+00 0.409D+00 0.582D+00
 Coeff:      0.173D-05-0.176D-05-0.209D-06 0.600D-07 0.555D-05 0.368D-04
 Coeff:      0.488D-04 0.133D-03 0.879D-03 0.204D-02 0.423D-02-0.150D-02
 Coeff:     -0.325D-01-0.548D-01-0.524D-01 0.142D+00 0.409D+00 0.582D+00
 Gap=     0.150 Goal=   None    Shift=    0.000
 RMSDP=1.24D-08 MaxDP=1.42D-06 DE= 1.36D-10 OVMax= 2.64D-06

 Cycle  19  Pass 1  IDiag  1:
 RMSU=  4.10D-09    CP:  9.58D-01  1.97D+00  1.81D-01  2.34D-01  1.03D+00
                    CP:  8.30D-01  6.06D-01  6.48D-01  8.95D-01  6.88D-01
                    CP:  1.12D+00  1.49D+00  1.64D+00  1.60D+00  2.26D+00
                    CP:  1.74D+00  9.67D-01  7.91D-01
 E= -3726.87702661987     Delta-E=        0.000000000084 Rises=F Damp=F
 DIIS: error= 1.96D-08 at cycle  19 NSaved=  19.
 NSaved=19 IEnMin=17 EnMin= -3726.87702662009     IErMin=19 ErrMin= 1.96D-08
 ErrMax= 1.96D-08  0.00D+00 EMaxC= 1.00D-01 BMatC= 5.29D-13 BMatP= 1.41D-11
 IDIUse=1 WtCom= 1.00D+00 WtEn= 0.00D+00
 Coeff-Com: -0.392D-06 0.531D-06-0.133D-06-0.539D-07 0.321D-05 0.131D-04
 Coeff-Com:  0.116D-04 0.128D-04 0.869D-04 0.277D-03 0.695D-03 0.128D-03
 Coeff-Com: -0.568D-02-0.128D-01-0.271D-01 0.226D-01 0.139D+00 0.289D+00
 Coeff-Com:  0.594D+00
 Coeff:     -0.392D-06 0.531D-06-0.133D-06-0.539D-07 0.321D-05 0.131D-04
 Coeff:      0.116D-04 0.128D-04 0.869D-04 0.277D-03 0.695D-03 0.128D-03
 Coeff:     -0.568D-02-0.128D-01-0.271D-01 0.226D-01 0.139D+00 0.289D+00
 Coeff:      0.594D+00
 Gap=     0.150 Goal=   None    Shift=    0.000
 RMSDP=2.40D-09 MaxDP=2.54D-07 DE= 8.37D-11 OVMax= 4.95D-07

 SCF Done:  E(RPBE1PBE) =  -3726.87702662     A.U. after   19 cycles
            NFock= 19  Conv=0.24D-08     -V/T= 2.0059
 KE= 3.704849575301D+03 PE=-2.424441345387D+04 EE= 9.069850640289D+03
 Leave Link  502 at Fri Sep 29 19:34:47 2023, MaxMem=  4026531840 cpu:            5495.9 elap:             185.8
 (Enter /sw/arch/RHEL8/EB_production/2022/software/Gaussian/g16.c02/l508.exe)
 QCSCF skips out because SCF is already converged.
 Leave Link  508 at Fri Sep 29 19:34:47 2023, MaxMem=  4026531840 cpu:               0.1 elap:               0.0
 (Enter /sw/arch/RHEL8/EB_production/2022/software/Gaussian/g16.c02/l601.exe)
 Copying SCF densities to generalized density rwf, IOpCl= 0 IROHF=0.
 Hyperfine terms turned off by default for NAtoms > 100.

 **********************************************************************

            Population analysis using the SCF Density.

 **********************************************************************

 Alpha  occ. eigenvalues -- -256.34389 -77.17976 -77.16156 -30.11853 -25.96704
 Alpha  occ. eigenvalues --  -25.94808 -25.94799 -19.23062 -19.22023 -10.28724
 Alpha  occ. eigenvalues --  -10.28185 -10.27426 -10.27136 -10.24792 -10.24476
 Alpha  occ. eigenvalues --  -10.24333 -10.24051 -10.23921 -10.23777 -10.23669
 Alpha  occ. eigenvalues --  -10.23656 -10.23573 -10.23555 -10.23500 -10.23444
 Alpha  occ. eigenvalues --  -10.23400 -10.23353 -10.23320 -10.23281 -10.23234
 Alpha  occ. eigenvalues --  -10.23217 -10.23062 -10.23052 -10.22853 -10.22776
 Alpha  occ. eigenvalues --  -10.22626 -10.22615 -10.22225 -10.22178 -10.22158
 Alpha  occ. eigenvalues --  -10.22123 -10.22049 -10.22005 -10.21937 -10.21843
 Alpha  occ. eigenvalues --  -10.21678 -10.21634 -10.21599 -10.21523 -10.21464
 Alpha  occ. eigenvalues --  -10.21210  -6.59008  -6.57257  -4.73065  -4.73056
 Alpha  occ. eigenvalues --   -4.72518  -4.71329  -4.71288  -4.70720  -3.45040
 Alpha  occ. eigenvalues --   -2.24031  -2.19265  -2.19248  -1.08350  -1.07266
 Alpha  occ. eigenvalues --   -0.91555  -0.89663  -0.87877  -0.86712  -0.85354
 Alpha  occ. eigenvalues --   -0.84471  -0.80449  -0.80399  -0.79405  -0.79028
 Alpha  occ. eigenvalues --   -0.76931  -0.76330  -0.75675  -0.74901  -0.74752
 Alpha  occ. eigenvalues --   -0.73624  -0.73160  -0.72349  -0.72291  -0.72159
 Alpha  occ. eigenvalues --   -0.71266  -0.69602  -0.69185  -0.68512  -0.67686
 Alpha  occ. eigenvalues --   -0.65928  -0.63583  -0.62508  -0.61946  -0.61150
 Alpha  occ. eigenvalues --   -0.60622  -0.59843  -0.59311  -0.58696  -0.57025
 Alpha  occ. eigenvalues --   -0.56682  -0.56119  -0.55610  -0.55202  -0.54820
 Alpha  occ. eigenvalues --   -0.54612  -0.53992  -0.53760  -0.52874  -0.51482
 Alpha  occ. eigenvalues --   -0.51282  -0.51033  -0.49989  -0.49035  -0.48740
 Alpha  occ. eigenvalues --   -0.47941  -0.47817  -0.46552  -0.45659  -0.45466
 Alpha  occ. eigenvalues --   -0.45394  -0.45161  -0.44629  -0.44453  -0.44364
 Alpha  occ. eigenvalues --   -0.44145  -0.43502  -0.43438  -0.43216  -0.43109
 Alpha  occ. eigenvalues --   -0.42724  -0.42703  -0.42470  -0.42326  -0.41959
 Alpha  occ. eigenvalues --   -0.41878  -0.41775  -0.41568  -0.41360  -0.41015
 Alpha  occ. eigenvalues --   -0.40832  -0.40797  -0.40224  -0.39835  -0.39707
 Alpha  occ. eigenvalues --   -0.39186  -0.38892  -0.38857  -0.38790  -0.38691
 Alpha  occ. eigenvalues --   -0.38434  -0.38140  -0.37785  -0.37600  -0.37279
 Alpha  occ. eigenvalues --   -0.36961  -0.36827  -0.36446  -0.36323  -0.36025
 Alpha  occ. eigenvalues --   -0.35660  -0.35465  -0.35254  -0.34681  -0.34502
 Alpha  occ. eigenvalues --   -0.34333  -0.33809  -0.33733  -0.32888  -0.32316
 Alpha  occ. eigenvalues --   -0.31843  -0.31336  -0.30546  -0.30370  -0.29089
 Alpha  occ. eigenvalues --   -0.28126  -0.28001  -0.27846  -0.27474  -0.26921
 Alpha  occ. eigenvalues --   -0.25652  -0.25452  -0.25031  -0.24580  -0.24356
 Alpha  occ. eigenvalues --   -0.24058  -0.21743  -0.21150  -0.20762  -0.16547
 Alpha virt. eigenvalues --   -0.01586  -0.00422   0.00016   0.00494   0.00629
 Alpha virt. eigenvalues --    0.01033   0.03977   0.04435   0.05405   0.06009
 Alpha virt. eigenvalues --    0.06342   0.06576   0.07015   0.07065   0.07471
 Alpha virt. eigenvalues --    0.07669   0.07870   0.08300   0.08676   0.08793
 Alpha virt. eigenvalues --    0.09225   0.09435   0.09615   0.10021   0.10390
 Alpha virt. eigenvalues --    0.10463   0.10607   0.11268   0.11658   0.11879
 Alpha virt. eigenvalues --    0.12079   0.12314   0.12669   0.12905   0.13042
 Alpha virt. eigenvalues --    0.13294   0.13335   0.13674   0.13771   0.13899
 Alpha virt. eigenvalues --    0.14119   0.14326   0.14526   0.14764   0.14894
 Alpha virt. eigenvalues --    0.15148   0.15302   0.15418   0.15468   0.15569
 Alpha virt. eigenvalues --    0.15854   0.16167   0.16312   0.16618   0.16739
 Alpha virt. eigenvalues --    0.16886   0.17454   0.17525   0.17891   0.18037
 Alpha virt. eigenvalues --    0.18419   0.18521   0.19062   0.19276   0.19320
 Alpha virt. eigenvalues --    0.19641   0.19653   0.19963   0.20152   0.20276
 Alpha virt. eigenvalues --    0.20614   0.21240   0.21390   0.21779   0.22116
 Alpha virt. eigenvalues --    0.22366   0.22869   0.23027   0.23523   0.23836
 Alpha virt. eigenvalues --    0.24237   0.24431   0.24764   0.25189   0.25376
 Alpha virt. eigenvalues --    0.25622   0.25759   0.26502   0.26600   0.26875
 Alpha virt. eigenvalues --    0.27245   0.27448   0.28108   0.28397   0.28595
 Alpha virt. eigenvalues --    0.29208   0.29270   0.29580   0.30050   0.30407
 Alpha virt. eigenvalues --    0.31189   0.31488   0.32167   0.32696   0.32770
 Alpha virt. eigenvalues --    0.32956   0.33426   0.33894   0.34166   0.34317
 Alpha virt. eigenvalues --    0.34548   0.34978   0.35495   0.35750   0.37321
 Alpha virt. eigenvalues --    0.37620   0.38933   0.39382   0.39987   0.41346
 Alpha virt. eigenvalues --    0.41421   0.41950   0.42546   0.42851   0.43117
 Alpha virt. eigenvalues --    0.43801   0.44008   0.44123   0.44525   0.44809
 Alpha virt. eigenvalues --    0.45096   0.45300   0.45792   0.45977   0.46183
 Alpha virt. eigenvalues --    0.46454   0.46644   0.46908   0.47282   0.47407
 Alpha virt. eigenvalues --    0.47514   0.47594   0.47866   0.48232   0.48367
 Alpha virt. eigenvalues --    0.48554   0.49057   0.49282   0.49861   0.50102
 Alpha virt. eigenvalues --    0.50552   0.50674   0.50800   0.51325   0.51883
 Alpha virt. eigenvalues --    0.52447   0.52846   0.53615   0.53973   0.54278
 Alpha virt. eigenvalues --    0.54377   0.54850   0.55163   0.55798   0.56248
 Alpha virt. eigenvalues --    0.56377   0.56687   0.57479   0.57731   0.58321
 Alpha virt. eigenvalues --    0.58944   0.59402   0.59946   0.60544   0.60965
 Alpha virt. eigenvalues --    0.61271   0.61557   0.61751   0.62298   0.62594
 Alpha virt. eigenvalues --    0.63017   0.63356   0.63445   0.63938   0.64874
 Alpha virt. eigenvalues --    0.65159   0.65329   0.65677   0.65869   0.65981
 Alpha virt. eigenvalues --    0.66284   0.66434   0.66648   0.66842   0.67015
 Alpha virt. eigenvalues --    0.67207   0.67434   0.67611   0.67848   0.67929
 Alpha virt. eigenvalues --    0.68184   0.68290   0.68510   0.68881   0.68945
 Alpha virt. eigenvalues --    0.69147   0.69451   0.69537   0.69658   0.69755
 Alpha virt. eigenvalues --    0.70027   0.70320   0.70476   0.70634   0.70838
 Alpha virt. eigenvalues --    0.70925   0.71048   0.71283   0.71533   0.71651
 Alpha virt. eigenvalues --    0.71775   0.71965   0.72084   0.72407   0.72534
 Alpha virt. eigenvalues --    0.72597   0.72796   0.72898   0.73120   0.73238
 Alpha virt. eigenvalues --    0.73337   0.73533   0.73755   0.74022   0.74101
 Alpha virt. eigenvalues --    0.74136   0.74259   0.74341   0.74576   0.74805
 Alpha virt. eigenvalues --    0.75075   0.75296   0.75533   0.75706   0.75845
 Alpha virt. eigenvalues --    0.75968   0.76191   0.76505   0.76609   0.76765
 Alpha virt. eigenvalues --    0.77032   0.77110   0.77241   0.77539   0.77565
 Alpha virt. eigenvalues --    0.77897   0.77919   0.78094   0.78591   0.78728
 Alpha virt. eigenvalues --    0.79037   0.79549   0.79818   0.79869   0.80205
 Alpha virt. eigenvalues --    0.80349   0.80627   0.80822   0.81041   0.81699
 Alpha virt. eigenvalues --    0.82045   0.82208   0.82584   0.83129   0.83151
 Alpha virt. eigenvalues --    0.83692   0.83903   0.84240   0.84550   0.84936
 Alpha virt. eigenvalues --    0.85396   0.85700   0.86279   0.86401   0.86916
 Alpha virt. eigenvalues --    0.87181   0.87696   0.87802   0.88311   0.88874
 Alpha virt. eigenvalues --    0.89200   0.89495   0.90095   0.90378   0.90622
 Alpha virt. eigenvalues --    0.91683   0.91946   0.92482   0.92697   0.92805
 Alpha virt. eigenvalues --    0.93454   0.93531   0.94537   0.94752   0.95978
 Alpha virt. eigenvalues --    0.96106   0.97004   0.97514   0.98165   0.98439
 Alpha virt. eigenvalues --    0.98646   0.99058   0.99748   1.00000   1.00538
 Alpha virt. eigenvalues --    1.01024   1.01156   1.02232   1.03283   1.04518
 Alpha virt. eigenvalues --    1.04973   1.05241   1.06135   1.06536   1.06825
 Alpha virt. eigenvalues --    1.08548   1.09409   1.10479   1.11147   1.12110
 Alpha virt. eigenvalues --    1.12803   1.13831   1.14605   1.15247   1.15639
 Alpha virt. eigenvalues --    1.16031   1.17219   1.17657   1.18211   1.19574
 Alpha virt. eigenvalues --    1.20125   1.20377   1.21036   1.21633   1.21874
 Alpha virt. eigenvalues --    1.23082   1.23771   1.24213   1.25037   1.25832
 Alpha virt. eigenvalues --    1.26769   1.26837   1.27554   1.27798   1.28431
 Alpha virt. eigenvalues --    1.29205   1.29422   1.30153   1.31091   1.31296
 Alpha virt. eigenvalues --    1.32027   1.32221   1.32823   1.33677   1.33867
 Alpha virt. eigenvalues --    1.34814   1.35319   1.35590   1.36354   1.37057
 Alpha virt. eigenvalues --    1.37660   1.38170   1.39014   1.39585   1.40148
 Alpha virt. eigenvalues --    1.40818   1.41254   1.41806   1.42485   1.42609
 Alpha virt. eigenvalues --    1.43452   1.44231   1.44902   1.45890   1.49887
 Alpha virt. eigenvalues --    1.50602   1.51191   1.51791   1.54062   1.56968
 Alpha virt. eigenvalues --    1.60186   1.61076   1.61591   1.62425   1.62732
 Alpha virt. eigenvalues --    1.63421   1.63780   1.64932   1.65867   1.66144
 Alpha virt. eigenvalues --    1.67785   1.68479   1.69486   1.69779   1.71247
 Alpha virt. eigenvalues --    1.71389   1.72304   1.74030   1.74693   1.75988
 Alpha virt. eigenvalues --    1.76914   1.77569   1.78644   1.78811   1.79413
 Alpha virt. eigenvalues --    1.79761   1.79872   1.79960   1.81086   1.81142
 Alpha virt. eigenvalues --    1.81648   1.82170   1.82605   1.83049   1.84124
 Alpha virt. eigenvalues --    1.84266   1.84514   1.87686   1.88669   1.89091
 Alpha virt. eigenvalues --    1.89923   1.90122   1.90332   1.90842   1.91337
 Alpha virt. eigenvalues --    1.91476   1.91865   1.92384   1.92895   1.93097
 Alpha virt. eigenvalues --    1.93756   1.94270   1.94644   1.94933   1.95476
 Alpha virt. eigenvalues --    1.95724   1.96303   1.96581   1.96736   1.97319
 Alpha virt. eigenvalues --    1.97644   1.98037   1.98309   1.98597   1.99034
 Alpha virt. eigenvalues --    1.99743   2.00684   2.01473   2.02309   2.02629
 Alpha virt. eigenvalues --    2.03155   2.03693   2.04646   2.04873   2.05548
 Alpha virt. eigenvalues --    2.06127   2.06296   2.06768   2.06942   2.07419
 Alpha virt. eigenvalues --    2.08075   2.08838   2.09109   2.09392   2.09842
 Alpha virt. eigenvalues --    2.10035   2.10320   2.10812   2.11417   2.11675
 Alpha virt. eigenvalues --    2.11946   2.12196   2.12469   2.13068   2.14395
 Alpha virt. eigenvalues --    2.14733   2.15094   2.16099   2.16357   2.17423
 Alpha virt. eigenvalues --    2.18736   2.20701   2.21236   2.21662   2.22004
 Alpha virt. eigenvalues --    2.22428   2.22617   2.23330   2.23700   2.23939
 Alpha virt. eigenvalues --    2.24275   2.24520   2.25423   2.26048   2.27032
 Alpha virt. eigenvalues --    2.28364   2.28744   2.29564   2.30032   2.30425
 Alpha virt. eigenvalues --    2.30929   2.31680   2.32274   2.32595   2.32835
 Alpha virt. eigenvalues --    2.33057   2.33217   2.33859   2.34058   2.34418
 Alpha virt. eigenvalues --    2.34903   2.35546   2.35650   2.35903   2.36153
 Alpha virt. eigenvalues --    2.36403   2.36732   2.37182   2.37725   2.38013
 Alpha virt. eigenvalues --    2.38346   2.38970   2.40230   2.42174   2.42516
 Alpha virt. eigenvalues --    2.43417   2.46414   2.49376   2.49630   2.50017
 Alpha virt. eigenvalues --    2.50760   2.51567   2.51883   2.52963   2.55638
 Alpha virt. eigenvalues --    2.57055   2.57895   2.58738   2.60911   2.61314
 Alpha virt. eigenvalues --    2.61874   2.62709   2.63119   2.63459   2.63932
 Alpha virt. eigenvalues --    2.64166   2.64422   2.65417   2.65498   2.65867
 Alpha virt. eigenvalues --    2.66603   2.67311   2.68906   2.70634   2.70833
 Alpha virt. eigenvalues --    2.72430   2.73332   2.74953   2.75525   2.76355
 Alpha virt. eigenvalues --    2.77264   2.78120   2.78351   2.79987   2.80352
 Alpha virt. eigenvalues --    2.80890   2.83511   2.84685   2.87648   2.88741
 Alpha virt. eigenvalues --    2.89359   2.89707   2.92538   2.94890   2.96086
 Alpha virt. eigenvalues --    2.97219   2.98021   3.00323   3.01266   3.04336
 Alpha virt. eigenvalues --    3.25419   3.26382   3.31503   3.32245   3.37943
 Alpha virt. eigenvalues --    3.38777   3.60495   3.61407
          Condensed to atoms (all electrons):
 Mulliken charges:
               1
     1  P    0.412003
     2  C   -0.084063
     3  C   -0.218935
     4  C   -0.019919
     5  C    0.093295
     6  C   -0.017626
     7  C   -0.224041
     8  C   -0.075454
     9  C   -0.251097
    10  C   -0.009209
    11  C    0.082600
    12  C   -0.004790
    13  C   -0.246022
    14  P    0.332713
    15  C   -0.335026
    16  C   -0.319727
    17  C   -0.155993
    18  C   -0.044869
    19  C   -0.091409
    20  C   -0.047878
    21  C   -0.096966
    22  H    0.106803
    23  H    0.100560
    24  H    0.105905
    25  H    0.093860
    26  H    0.155661
    27  H    0.139860
    28  H    0.147276
    29  H    0.134878
    30  H    0.119551
    31  Fe  -0.218403
    32  C   -0.085643
    33  C   -0.068117
    34  C   -0.092522
    35  C   -0.111662
    36  C   -0.088420
    37  H    0.112053
    38  H    0.108530
    39  H    0.150486
    40  H    0.110550
    41  H    0.106484
    42  H    0.103245
    43  H    0.113186
    44  C   -0.381878
    45  C   -0.225958
    46  C   -0.246900
    47  H    0.124271
    48  C   -0.185903
    49  H    0.139542
    50  H    0.135729
    51  C   -0.197333
    52  H    0.179799
    53  H    0.143600
    54  C   -0.214232
    55  H    0.108203
    56  H    0.098212
    57  H    0.119403
    58  H    0.100565
    59  H    0.111800
    60  H    0.103956
    61  C   -0.369648
    62  C   -0.240769
    63  C   -0.199038
    64  H    0.130517
    65  C   -0.185949
    66  H    0.122993
    67  H    0.153073
    68  C   -0.190695
    69  H    0.115013
    70  H    0.132479
    71  C   -0.216833
    72  H    0.111965
    73  H    0.105209
    74  H    0.112027
    75  H    0.101010
    76  H    0.115552
    77  H    0.101781
    78  C   -0.299068
    79  O   -0.362823
    80  O   -0.359967
    81  C   -0.127600
    82  H    0.120540
    83  H    0.141216
    84  H    0.120218
    85  C   -0.121027
    86  H    0.115341
    87  H    0.137056
    88  H    0.115845
    89  C   -0.297832
    90  C   -0.281571
    91  C   -0.298863
    92  H    0.146487
    93  H    0.132946
    94  H    0.146458
    95  H    0.135399
    96  H    0.150214
    97  H    0.125987
    98  H    0.139176
    99  H    0.145467
   100  H    0.130226
   101  H    0.133527
   102  H    0.133397
   103  H    0.145978
 Sum of Mulliken charges =  -0.00000
 Mulliken charges with hydrogens summed into heavy atoms:
               1
     1  P    0.412003
     2  C   -0.084063
     3  C   -0.112132
     4  C   -0.019919
     5  C    0.093295
     6  C   -0.017626
     7  C   -0.123482
     8  C   -0.075454
     9  C   -0.145192
    10  C   -0.009209
    11  C    0.082600
    12  C   -0.004790
    13  C   -0.152162
    14  P    0.332713
    15  C   -0.179365
    16  C    0.102287
    17  C   -0.155993
    18  C   -0.044869
    19  C    0.011836
    20  C    0.058606
    21  C    0.022585
    31  Fe  -0.218403
    32  C    0.026411
    33  C    0.045070
    34  C    0.016008
    35  C    0.038825
    36  C    0.022130
    44  C   -0.257607
    45  C    0.049313
    46  C    0.076499
    48  C    0.020512
    51  C    0.022635
    54  C    0.001524
    61  C   -0.239131
    62  C    0.035297
    63  C    0.048454
    65  C    0.031225
    68  C    0.022342
    71  C    0.000500
    78  C    0.115802
    79  O   -0.362823
    80  O   -0.359967
    81  C    0.254375
    85  C    0.247214
    89  C    0.115070
    90  C    0.130029
    91  C    0.127028
 Electronic spatial extent (au):  <R**2>=          30865.2849
 Charge=             -0.0000 electrons
 Dipole moment (field-independent basis, Debye):
    X=              1.6171    Y=             -0.6201    Z=             -0.6934  Tot=              1.8655
 Quadrupole moment (field-independent basis, Debye-Ang):
   XX=           -297.7525   YY=           -305.6511   ZZ=           -282.2631
   XY=             20.0126   XZ=             -0.4420   YZ=             -1.3996
 Traceless Quadrupole moment (field-independent basis, Debye-Ang):
   XX=             -2.5302   YY=            -10.4288   ZZ=             12.9591
   XY=             20.0126   XZ=             -0.4420   YZ=             -1.3996
 Octapole moment (field-independent basis, Debye-Ang**2):
  XXX=            -62.1536  YYY=              6.0463  ZZZ=            153.7006  XYY=             26.6553
  XXY=             64.9099  XXZ=             96.7363  XZZ=             41.2691  YZZ=             14.6971
  YYZ=            136.0465  XYZ=            -22.0763
 Hexadecapole moment (field-independent basis, Debye-Ang**3):
 XXXX=         -14467.3548 YYYY=         -14484.9643 ZZZZ=         -11494.6615 XXXY=          -2121.6920
 XXXZ=           1830.1649 YYYX=          -1829.2675 YYYZ=           -818.4911 ZZZX=           1484.9906
 ZZZY=           -952.6483 XXYY=          -4745.3425 XXZZ=          -4340.5320 YYZZ=          -4477.7397
 XXYZ=           -353.0587 YYXZ=            744.8186 ZZXY=           -701.1013
 N-N= 7.742836211658D+03 E-N=-2.424441346650D+04  KE= 3.704849575301D+03
 Leave Link  601 at Fri Sep 29 19:34:48 2023, MaxMem=  4026531840 cpu:               0.8 elap:               0.2
 (Enter /sw/arch/RHEL8/EB_production/2022/software/Gaussian/g16.c02/l607.exe)
 ******************************Gaussian NBO Version 3.1******************************
             N A T U R A L   A T O M I C   O R B I T A L   A N D
          N A T U R A L   B O N D   O R B I T A L   A N A L Y S I S
 ******************************Gaussian NBO Version 3.1******************************
       /RESON  / : Allow strongly delocalized NBO set

 Analyzing the SCF density

 Job title: Cisa                                                            

 Storage needed:   1895550 in NPA,   2496773 in NBO (4026476529 available)


 NATURAL POPULATIONS:  Natural atomic orbital occupancies 
                                                          
   NAO  Atom  No  lang   Type(AO)    Occupancy      Energy
 ----------------------------------------------------------
     1    P    1  S      Cor( 1S)     1.99999     -76.24208
     2    P    1  S      Cor( 2S)     1.99857      -7.30258
     3    P    1  S      Val( 3S)     1.24003      -0.36287
     4    P    1  S      Ryd( 4S)     0.00504       0.75976
     5    P    1  px     Cor( 2p)     1.99985      -4.71853
     6    P    1  px     Val( 3p)     1.42672      -0.09932
     7    P    1  px     Ryd( 4p)     0.00725       0.90489
     8    P    1  py     Cor( 2p)     1.99975      -4.72103
     9    P    1  py     Val( 3p)     0.69412      -0.01304
    10    P    1  py     Ryd( 4p)     0.00417       0.82757
    11    P    1  pz     Cor( 2p)     1.99974      -4.72081
    12    P    1  pz     Val( 3p)     0.70221      -0.01116
    13    P    1  pz     Ryd( 4p)     0.00533       0.80208
    14    P    1  dxy    Ryd( 3d)     0.00560       1.01127
    15    P    1  dxz    Ryd( 3d)     0.00498       1.13618
    16    P    1  dyz    Ryd( 3d)     0.00550       1.18745
    17    P    1  dx2y2  Ryd( 3d)     0.00344       1.04668
    18    P    1  dz2    Ryd( 3d)     0.00491       1.08625
 
    19    C    2  S      Cor( 1S)     1.99885     -10.09845
    20    C    2  S      Val( 2S)     0.93102      -0.16132
    21    C    2  S      Ryd( 3S)     0.00412       0.72706
    22    C    2  px     Val( 2p)     1.13167      -0.08310
    23    C    2  px     Ryd( 3p)     0.00626       0.92025
    24    C    2  py     Val( 2p)     1.08950      -0.10930
    25    C    2  py     Ryd( 3p)     0.00329       0.80879
    26    C    2  pz     Val( 2p)     1.16947      -0.12306
    27    C    2  pz     Ryd( 3p)     0.00925       1.01036
    28    C    2  dxy    Ryd( 3d)     0.00064       2.06846
    29    C    2  dxz    Ryd( 3d)     0.00115       2.24458
    30    C    2  dyz    Ryd( 3d)     0.00055       2.14347
    31    C    2  dx2y2  Ryd( 3d)     0.00063       2.26131
    32    C    2  dz2    Ryd( 3d)     0.00082       2.13912
 
    33    C    3  S      Cor( 1S)     1.99884     -10.09311
    34    C    3  S      Val( 2S)     0.91665      -0.11434
    35    C    3  S      Ryd( 3S)     0.00155       0.65173
    36    C    3  px     Val( 2p)     1.19612      -0.06005
    37    C    3  px     Ryd( 3p)     0.00791       1.10240
    38    C    3  py     Val( 2p)     1.01614      -0.08539
    39    C    3  py     Ryd( 3p)     0.00189       0.66214
    40    C    3  pz     Val( 2p)     1.05323      -0.05030
    41    C    3  pz     Ryd( 3p)     0.00332       0.73004
    42    C    3  dxy    Ryd( 3d)     0.00048       2.00769
    43    C    3  dxz    Ryd( 3d)     0.00062       2.26657
    44    C    3  dyz    Ryd( 3d)     0.00052       2.24390
    45    C    3  dx2y2  Ryd( 3d)     0.00068       2.10102
    46    C    3  dz2    Ryd( 3d)     0.00069       2.17581
 
    47    C    4  S      Cor( 1S)     1.99881     -10.10601
    48    C    4  S      Val( 2S)     0.86055      -0.10420
    49    C    4  S      Ryd( 3S)     0.00127       0.61957
    50    C    4  px     Val( 2p)     1.09499      -0.05663
    51    C    4  px     Ryd( 3p)     0.00358       0.92317
    52    C    4  py     Val( 2p)     1.03089      -0.08819
    53    C    4  py     Ryd( 3p)     0.00284       0.81441
    54    C    4  pz     Val( 2p)     1.07568      -0.06813
    55    C    4  pz     Ryd( 3p)     0.00454       0.95536
    56    C    4  dxy    Ryd( 3d)     0.00072       2.09533
    57    C    4  dxz    Ryd( 3d)     0.00066       2.32373
    58    C    4  dyz    Ryd( 3d)     0.00063       2.18241
    59    C    4  dx2y2  Ryd( 3d)     0.00066       2.23231
    60    C    4  dz2    Ryd( 3d)     0.00081       2.15668
 
    61    C    5  S      Cor( 1S)     1.99849     -10.15750
    62    C    5  S      Val( 2S)     0.78704      -0.08023
    63    C    5  S      Ryd( 3S)     0.00220       0.73473
    64    C    5  px     Val( 2p)     1.00135      -0.03531
    65    C    5  px     Ryd( 3p)     0.00573       0.90607
    66    C    5  py     Val( 2p)     0.97672      -0.08675
    67    C    5  py     Ryd( 3p)     0.00456       0.70727
    68    C    5  pz     Val( 2p)     0.87610      -0.04427
    69    C    5  pz     Ryd( 3p)     0.00593       0.91845
    70    C    5  dxy    Ryd( 3d)     0.00109       2.12345
    71    C    5  dxz    Ryd( 3d)     0.00179       2.31425
    72    C    5  dyz    Ryd( 3d)     0.00142       2.19831
    73    C    5  dx2y2  Ryd( 3d)     0.00115       2.22743
    74    C    5  dz2    Ryd( 3d)     0.00172       2.15534
 
    75    C    6  S      Cor( 1S)     1.99881     -10.10367
    76    C    6  S      Val( 2S)     0.86013      -0.10269
    77    C    6  S      Ryd( 3S)     0.00159       0.62155
    78    C    6  px     Val( 2p)     1.08554      -0.06178
    79    C    6  px     Ryd( 3p)     0.00575       1.12476
    80    C    6  py     Val( 2p)     1.02334      -0.08534
    81    C    6  py     Ryd( 3p)     0.00229       0.74325
    82    C    6  pz     Val( 2p)     1.08550      -0.06151
    83    C    6  pz     Ryd( 3p)     0.00345       0.83551
    84    C    6  dxy    Ryd( 3d)     0.00082       2.06748
    85    C    6  dxz    Ryd( 3d)     0.00089       2.33150
    86    C    6  dyz    Ryd( 3d)     0.00053       2.22124
    87    C    6  dx2y2  Ryd( 3d)     0.00060       2.20390
    88    C    6  dz2    Ryd( 3d)     0.00064       2.18986
 
    89    C    7  S      Cor( 1S)     1.99887     -10.08985
    90    C    7  S      Val( 2S)     0.91756      -0.11414
    91    C    7  S      Ryd( 3S)     0.00275       0.72537
    92    C    7  px     Val( 2p)     1.11136      -0.04807
    93    C    7  px     Ryd( 3p)     0.00484       0.82727
    94    C    7  py     Val( 2p)     1.04417      -0.09008
    95    C    7  py     Ryd( 3p)     0.00331       0.80894
    96    C    7  pz     Val( 2p)     1.11774      -0.06065
    97    C    7  pz     Ryd( 3p)     0.00581       0.89487
    98    C    7  dxy    Ryd( 3d)     0.00061       2.07090
    99    C    7  dxz    Ryd( 3d)     0.00072       2.32155
   100    C    7  dyz    Ryd( 3d)     0.00061       2.12270
   101    C    7  dx2y2  Ryd( 3d)     0.00049       2.23331
   102    C    7  dz2    Ryd( 3d)     0.00061       2.11635
 
   103    C    8  S      Cor( 1S)     1.99890     -10.09576
   104    C    8  S      Val( 2S)     0.93280      -0.15450
   105    C    8  S      Ryd( 3S)     0.00361       0.67053
   106    C    8  px     Val( 2p)     1.06576      -0.10502
   107    C    8  px     Ryd( 3p)     0.00236       0.74523
   108    C    8  py     Val( 2p)     1.20485      -0.12557
   109    C    8  py     Ryd( 3p)     0.00982       1.08192
   110    C    8  pz     Val( 2p)     1.11650      -0.06730
   111    C    8  pz     Ryd( 3p)     0.00443       0.91977
   112    C    8  dxy    Ryd( 3d)     0.00102       2.02447
   113    C    8  dxz    Ryd( 3d)     0.00070       2.08802
   114    C    8  dyz    Ryd( 3d)     0.00081       2.39140
   115    C    8  dx2y2  Ryd( 3d)     0.00070       2.06897
   116    C    8  dz2    Ryd( 3d)     0.00078       2.28913
 
   117    C    9  S      Cor( 1S)     1.99887     -10.08072
   118    C    9  S      Val( 2S)     0.90838      -0.10035
   119    C    9  S      Ryd( 3S)     0.00196       0.65557
   120    C    9  px     Val( 2p)     1.04867      -0.08494
   121    C    9  px     Ryd( 3p)     0.00276       0.73225
   122    C    9  py     Val( 2p)     1.11734      -0.03843
   123    C    9  py     Ryd( 3p)     0.00482       0.90549
   124    C    9  pz     Val( 2p)     1.12752      -0.04244
   125    C    9  pz     Ryd( 3p)     0.00504       0.93724
   126    C    9  dxy    Ryd( 3d)     0.00061       2.02296
   127    C    9  dxz    Ryd( 3d)     0.00052       2.03008
   128    C    9  dyz    Ryd( 3d)     0.00076       2.33839
   129    C    9  dx2y2  Ryd( 3d)     0.00049       2.17891
   130    C    9  dz2    Ryd( 3d)     0.00057       2.29494
 
   131    C   10  S      Cor( 1S)     1.99882     -10.09425
   132    C   10  S      Val( 2S)     0.85963      -0.09163
   133    C   10  S      Ryd( 3S)     0.00151       0.59275
   134    C   10  px     Val( 2p)     1.01880      -0.07906
   135    C   10  px     Ryd( 3p)     0.00209       0.72298
   136    C   10  py     Val( 2p)     1.09265      -0.04143
   137    C   10  py     Ryd( 3p)     0.00371       0.90071
   138    C   10  pz     Val( 2p)     1.07573      -0.05161
   139    C   10  pz     Ryd( 3p)     0.00547       1.08590
   140    C   10  dxy    Ryd( 3d)     0.00071       2.08229
   141    C   10  dxz    Ryd( 3d)     0.00073       2.06654
   142    C   10  dyz    Ryd( 3d)     0.00088       2.39192
   143    C   10  dx2y2  Ryd( 3d)     0.00055       2.22761
   144    C   10  dz2    Ryd( 3d)     0.00067       2.27071
 
   145    C   11  S      Cor( 1S)     1.99849     -10.14206
   146    C   11  S      Val( 2S)     0.78521      -0.06561
   147    C   11  S      Ryd( 3S)     0.00260       0.72135
   148    C   11  px     Val( 2p)     1.03329      -0.09022
   149    C   11  px     Ryd( 3p)     0.00346       0.75190
   150    C   11  py     Val( 2p)     0.77654      -0.00334
   151    C   11  py     Ryd( 3p)     0.00893       0.86972
   152    C   11  pz     Val( 2p)     1.06465      -0.03350
   153    C   11  pz     Ryd( 3p)     0.00370       0.92635
   154    C   11  dxy    Ryd( 3d)     0.00150       2.06782
   155    C   11  dxz    Ryd( 3d)     0.00073       2.07842
   156    C   11  dyz    Ryd( 3d)     0.00202       2.38295
   157    C   11  dx2y2  Ryd( 3d)     0.00160       2.19599
   158    C   11  dz2    Ryd( 3d)     0.00121       2.34188
 
   159    C   12  S      Cor( 1S)     1.99883     -10.09493
   160    C   12  S      Val( 2S)     0.85998      -0.09269
   161    C   12  S      Ryd( 3S)     0.00146       0.59342
[...]
                                                    708(r),721(r),351(r),419(r)
                                                    372(r),190(g),412(r),405(r)
                                                    361(r),414(r),439(r),343(r)
                                                    191(g),410(r),739(r),430(r)
                                                    360(r),378(r),401(r),421(r)
                                                    437(r),742(r),695(r),436(r)
                                                    445(r),427(r),385(r),428(r)
                                                    709(r),417(r),358(r),349(r)
                                                    429(r),367(r),675(r),363(r)
                                                    409(r),376(r),491(r),342(r)
                                                    408(r),375(r),344(r),388(r)
                                                    368(r),501(r),490(r),448(r)
                                                    715(r),359(r),355(r),673(r)
                                                    352(r),426(r),390(r),420(r)
                                                    381(r),712(r),380(r),444(r)
                                                    716(r),365(r)
   189. LP*(   7)Fe  31                  0.20741     0.28558  724(r),192(r),675(r),730(r)
                                                    715(r),423(r),441(r),673(r)
                                                    722(r),734(r),394(r),731(r)
                                                    719(r),391(r),704(r),446(r)
                                                    414(r),405(r),451(r),377(r)
                                                    447(r),710(r),726(r),326(r)
                                                    363(r),380(r),353(r),452(r)
                                                    359(r),723(r),437(r),728(r)
                                                    419(r),674(r),739(r),252(r)
                                                    387(r),717(r),714(r),449(r)
                                                    182(r),385(r),706(r),708(r)
                                                    729(r),401(r),358(r),324(r)
                                                    381(r),427(r),732(r)
   190. LP*(   8)Fe  31                  0.20259     0.29188  673(r),675(r),182(r),717(r)
                                                    715(r),730(r),188(g),414(r)
                                                    405(r),372(r),733(r),721(r)
                                                    450(r),432(r),674(r),208(r)
                                                    452(r),704(r),446(r),728(r)
                                                    368(r),448(r),726(r),353(r)
                                                    709(r),326(r),341(r),390(r)
                                                    344(r),734(r),719(r),349(r)
                                                    429(r),716(r),417(r),428(r)
                                                    408(r),706(r),731(r),708(r)
                                                    720(r),718(r),363(r),705(r)
                                                    412(r),403(r),714(r),375(r)
   191. LP*(   9)Fe  31                  0.12852     0.23736  396(g),704(r),182(r),192(r)
                                                    742(r),673(r),706(r),709(r)
                                                    675(r),358(r),349(r),710(r)
                                                    370(r),385(r),367(r),441(r)
                                                    436(r),372(r),739(r),445(r)
                                                    432(r),376(r),705(r),379(r)
                                                    427(r),721(r),417(r),361(r)
                                                    423(r),343(r),405(r)
   395. RY*(   1)Fe  31                  0.00443     0.60028   
   396. RY*(   2)Fe  31                  0.00069     0.88885   
   397. RY*(   3)Fe  31                  0.00023     1.42184   
   398. RY*(   4)Fe  31                  0.00015     1.42871   
   399. RY*(   5)Fe  31                  0.00005     1.31742   
   400. RY*(   6)Fe  31                  0.00003     1.33454   
       -------------------------------
              Total Lewis   23.52335  ( 90.5511%)
        Valence non-Lewis    2.44905  (  9.4274%)
        Rydberg non-Lewis    0.00557  (  0.0215%)
       -------------------------------
            Total unit  2   25.97797  (100.0000%)
           Charge unit  2    0.02203
 
 Molecular unit  3  (C5H5)
    51. BD (   1) C  32 - C  33          1.96804    -0.63951  188(r),190(r),187(r),731(v)
                                                    734(v),191(r),438(v),726(g)
                                                    728(g),186(r),419(v),420(v)
                                                    727(g),725(g),437(v),182(r)
                                                    343(r)
    52. BD (   2) C  32 - C  33          1.52989    -0.28148  192(v),187(r),190(r),188(r)
                                                    186(r),182(r),730(v),191(r)
                                                    397(r),727(g),734(v),731(v)
                                                    403(g),396(r),717(r),715(r)
                                                    398(r),368(r),399(r)
    53. BD (   1) C  32 - C  36          1.95516    -0.64881  192(g),188(r),187(r),191(r)
                                                    728(v),189(r),733(v),190(r)
                                                    429(v),723(g),186(r),732(g)
                                                    734(g),411(v),726(g),410(v)
                                                    182(r)
    54. BD (   1) C  32 - H  37          1.98105    -0.52925  190(r),732(v),727(v),188(r)
                                                    723(g),189(r),191(r),725(g)
                                                    412(v),395(r)
    55. BD (   1) C  33 - C  34          1.95462    -0.66417  188(r),189(r),186(r),191(r)
                                                    190(r),726(v),733(v),723(g)
                                                    729(g),731(g),428(v),728(g)
                                                    402(v),401(v),182(r),187(r)
                                                    351(r)
    56. BD (   1) C  33 - H  43          1.98083    -0.52876  190(r),729(v),725(v),188(r)
                                                    189(r),723(g),727(g),191(r)
                                                    421(v),395(r)
    57. BD (   1) C  34 - C  35          1.96605    -0.63454  188(r),187(r),734(v),728(v)
                                                    191(r),189(r),411(v),438(v)
                                                    733(g),731(g),727(g),732(g)
                                                    253(r),190(r),182(r),186(r)
                                                    244(r)
    58. BD (   2) C  34 - C  35          1.52931    -0.27572  192(v),187(r),188(r),191(r)
                                                    724(v),189(r),190(r),182(r)
                                                    397(r),727(g),734(v),186(r)
                                                    728(v),396(r),717(r),687(r)
                                                    253(r),395(r),208(r),343(r)
                                                    353(r),675(r),400(r),398(r)
                                                    346(r),252(r)
    59. BD (   1) C  34 - H  38          1.98009    -0.52695  189(r),723(v),732(v),188(r)
                                                    729(g),191(r),727(g),430(v)
                                                    412(v),253(r),395(r),687(r)
                                                    251(r),387(r)
    60. BD (   1) C  35 - C  36          1.95584    -0.64817  192(g),188(r),191(r),186(r)
                                                    731(v),726(v),402(v),729(g)
                                                    420(v),725(g),734(g),733(g)
                                                    187(r),190(r),189(r),182(r)
                                                    370(r)
    61. BD (   1) C  35 - H  39          1.98008    -0.52219  188(r),725(v),727(v),190(r)
                                                    729(g),191(r),732(g),421(v)
                                                    208(r),395(r),187(r),253(r)
    62. BD (   1) C  36 - H  40          1.98057    -0.52883  729(v),188(r),723(v),189(r)
                                                    192(g),191(r),732(g),725(g)
                                                    710(r),391(r),395(r)
   155. CR (   1) C  32                  1.99865   -10.10086  188(r),190(r),191(r),438(v)
                                                    411(v),192(v),734(v),189(r)
                                                    728(v),446(v),732(v),187(r)
                                                    396(r)
   156. CR (   1) C  33                  1.99865   -10.10024  188(r),190(r),191(r),402(v)
                                                    420(v),189(r),731(v),726(v)
                                                    452(v),729(v),186(r),396(r)
   157. CR (   1) C  34                  1.99867   -10.09741  188(r),189(r),191(r),411(v)
                                                    429(v),733(v),728(v),447(v)
                                                    723(v),187(r),396(r),186(r)
   158. CR (   1) C  35                  1.99869   -10.09499  188(r),191(r),438(v),190(r)
                                                    420(v),192(v),448(v),734(v)
                                                    731(v),725(v),187(r),396(r)
                                                    189(r)
   159. CR (   1) C  36                  1.99868   -10.09889  188(r),192(g),189(r),191(r)
                                                    402(v),733(v),726(v),449(v)
                                                    429(v),428(v),729(v),723(v)
                                                    732(g),186(r),396(r)
   192. LP (   1) C  36                  0.99074    -0.12016  186(r),182(r),187(r),730(v)
                                                    724(v),188(r),189(r),732(g)
                                                    725(g),191(r),437(g),733(v)
                                                    726(v),439(g),431(v),429(v)
                                                    404(v),398(r),717(r),400(r)
                                                    391(r),399(r),396(r),190(r)
                                                    710(r),343(r),395(r),379(r)
   401. RY*(   1) C  32                  0.00397     0.89234   
   402. RY*(   2) C  32                  0.00363     0.67912   
   403. RY*(   3) C  32                  0.00264     1.15741   
   404. RY*(   4) C  32                  0.00132     1.87901   
   405. RY*(   5) C  32                  0.00094     0.72610   
   406. RY*(   6) C  32                  0.00021     1.96549   
   407. RY*(   7) C  32                  0.00010     2.34580   
   408. RY*(   8) C  32                  0.00006     2.13314   
   409. RY*(   9) C  32                  0.00005     2.10401   
   410. RY*(   1) C  33                  0.00392     0.88869   
   411. RY*(   2) C  33                  0.00365     0.64982   
   412. RY*(   3) C  33                  0.00272     1.20675   
   413. RY*(   4) C  33                  0.00132     1.88599   
   414. RY*(   5) C  33                  0.00093     0.71341   
   415. RY*(   6) C  33                  0.00020     1.97128   
   416. RY*(   7) C  33                  0.00010     2.34674   
   417. RY*(   8) C  33                  0.00005     2.16085   
   418. RY*(   9) C  33                  0.00006     2.07123   
   419. RY*(   1) C  34                  0.00395     0.83196   
   420. RY*(   2) C  34                  0.00375     0.75454   
   421. RY*(   3) C  34                  0.00272     1.31477   
   422. RY*(   4) C  34                  0.00131     1.89698   
   423. RY*(   5) C  34                  0.00095     0.70509   
   424. RY*(   6) C  34                  0.00021     2.00539   
   425. RY*(   7) C  34                  0.00011     2.37987   
   426. RY*(   8) C  34                  0.00007     2.08632   
   427. RY*(   9) C  34                  0.00005     2.15478   
   428. RY*(   1) C  35                  0.00428     0.90230   
   429. RY*(   2) C  35                  0.00398     0.77389   
   430. RY*(   3) C  35                  0.00264     1.28078   
   431. RY*(   4) C  35                  0.00131     1.89562   
   432. RY*(   5) C  35                  0.00102     0.71832   
   433. RY*(   6) C  35                  0.00021     2.01981   
   434. RY*(   7) C  35                  0.00011     2.10174   
   435. RY*(   8) C  35                  0.00011     2.36811   
   436. RY*(   9) C  35                  0.00005     2.18715   
   437. RY*(   1) C  36                  0.00405     0.90381   
   438. RY*(   2) C  36                  0.00364     0.66079   
   439. RY*(   3) C  36                  0.00260     1.24534   
   440. RY*(   4) C  36                  0.00110     1.90359   
   441. RY*(   5) C  36                  0.00094     0.70247   
   442. RY*(   6) C  36                  0.00020     1.98846   
   443. RY*(   7) C  36                  0.00010     2.35548   
   444. RY*(   8) C  36                  0.00007     2.08841   
   445. RY*(   9) C  36                  0.00005     2.16082   
   446. RY*(   1) H  37                  0.00118     0.35698   
   447. RY*(   1) H  38                  0.00179     0.45562   
   448. RY*(   1) H  39                  0.00375     0.57926   
   449. RY*(   1) H  40                  0.00147     0.39034   
   452. RY*(   1) H  43                  0.00115     0.36041   
   723. BD*(   1) C  32 - C  33          0.03099     0.52088   
   724. BD*(   2) C  32 - C  33          0.47173     0.04950  730(v),192(v),723(g),189(r)
                                                    717(r),186(r),410(g),401(g)
                                                    187(r),403(g),715(r),412(g)
                                                    400(r),398(r),687(r),182(r)
                                                    351(r),353(r)
   725. BD*(   1) C  32 - C  36          0.02853     0.52950   
   726. BD*(   1) C  32 - H  37          0.01609     0.49660   
   727. BD*(   1) C  33 - C  34          0.01369     0.54728   
   728. BD*(   1) C  33 - H  43          0.01607     0.49709   
   729. BD*(   1) C  34 - C  35          0.03062     0.52445   
   730. BD*(   2) C  34 - C  35          0.47298     0.05056  724(v),192(v),186(r),729(g)
                                                    189(r),715(r),717(r),190(r)
                                                    428(g),419(g),677(r),420(g)
                                                    430(g),399(r),687(r),398(r)
                                                    682(r),188(r),187(r)
   731. BD*(   1) C  34 - H  38          0.01661     0.50724   
   732. BD*(   1) C  35 - C  36          0.02933     0.53741   
   733. BD*(   1) C  35 - H  39          0.01649     0.52622   
   734. BD*(   1) C  36 - H  40          0.01689     0.49885   
       -------------------------------
              Total Lewis   33.74561  ( 96.4700%)
        Valence non-Lewis    1.16004  (  3.3163%)
        Rydberg non-Lewis    0.07477  (  0.2138%)
       -------------------------------
            Total unit  3   34.98043  (100.0000%)
           Charge unit  3    0.01957
 Leave Link  607 at Fri Sep 29 19:34:52 2023, MaxMem=  4026531840 cpu:              34.8 elap:               4.0
 (Enter /sw/arch/RHEL8/EB_production/2022/software/Gaussian/g16.c02/l9999.exe)
 Unable to Open any file for archive entry.
 1\1\GINC-TCN553\SP\RPBE1PBE\def2SVPP\C42H56Fe1O2P2\ADARSH\29-Sep-2023\
 0\\#p pop=nbo pbe1pbe/def2svpp empiricaldispersion=gd3bj integral=grid
 =ultrafinegrid scf=(xqc,maxconventionalcycles=90) nosymm\\Cisa\\0,1\P,
 0,0.23349,0.95937,-0.70314\C,0,1.14701,0.47667,-2.19539\C,0,0.46556,-0
 .2247,-3.19241\C,0,1.13247,-0.72271,-4.31583\C,0,2.51212,-0.48121,-4.4
 2341\C,0,3.22215,0.22579,-3.43315\C,0,2.52231,0.69764,-2.32432\C,0,0.8
 434,2.60107,-0.21349\C,0,0.56762,3.06386,1.08054\C,0,0.82059,4.38461,1
 .44631\C,0,1.3612,5.25455,0.48099\C,0,1.62223,4.82676,-0.83033\C,0,1.3
 5271,3.49417,-1.16019\P,0,-2.50753,-0.85037,0.03073\C,0,-1.0505,-2.021
 99,0.1429\C,0,-1.34102,-3.45385,0.58205\C,0,0.72114,-0.14866,0.63946\C
 ,0,0.02875,-1.37222,0.96238\C,0,0.54678,-1.83568,2.20987\C,0,1.55093,-
 0.92781,2.65117\C,0,1.66951,0.10648,1.6848\H,0,-0.61276,-0.39461,-3.08
 279\H,0,3.06514,1.23415,-1.54035\H,0,0.12751,2.38987,1.82096\H,0,1.534
 94,3.16293,-2.18674\H,0,-0.70359,-2.05238,-0.90604\H,0,-0.39362,-4.016
 69,0.62248\H,0,-2.00186,-3.96856,-0.13048\H,0,-1.80621,-3.50736,1.5765
 2\H,0,2.35689,0.95064,1.72208\Fe,0,2.03632,-1.70358,0.82321\C,0,3.1240
 1,-3.42744,0.99504\C,0,3.9894,-2.29739,0.9502\C,0,3.76064,-1.61629,-0.
 27896\C,0,2.75479,-2.32699,-0.99748\C,0,2.3655,-3.44654,-0.21137\H,0,3
 .0407,-4.13848,1.81734\H,0,4.26134,-0.7061,-0.6051\H,0,2.34551,-2.0525
 4,-1.96959\H,0,1.61241,-4.1862,-0.4835\H,0,2.15542,-1.03366,3.55189\H,
 0,0.26124,-2.75576,2.71812\H,0,4.68244,-1.99073,1.7339\C,0,-3.08583,-0
 .38281,1.73357\C,0,-3.06213,-1.46806,2.81431\C,0,-2.34937,0.87094,2.22
 879\H,0,-4.14304,-0.09832,1.55083\C,0,-3.66714,-0.94909,4.11817\H,0,-2
 .01348,-1.75899,2.99949\H,0,-3.59757,-2.37301,2.48692\C,0,-2.94077,1.3
 8696,3.53652\H,0,-1.28419,0.61837,2.38235\H,0,-2.38092,1.65665,1.44902
 \C,0,-2.95062,0.30402,4.61011\H,0,-3.62776,-1.74241,4.88476\H,0,-4.738
 97,-0.723,3.95749\H,0,-2.36947,2.26839,3.87929\H,0,-3.97552,1.73628,3.
 35472\H,0,-3.42469,0.68051,5.53292\H,0,-1.90713,0.04539,4.87451\C,0,-3
 .90443,-1.74652,-0.79403\C,0,-3.4372,-2.31601,-2.1399\C,0,-4.71809,-2.
 76726,0.00734\H,0,-4.59722,-0.91078,-1.01674\C,0,-4.61418,-2.84444,-2.
 95529\H,0,-2.72388,-3.1423,-1.9658\H,0,-2.88451,-1.54262,-2.70619\C,0,
 -5.88526,-3.29332,-0.82874\H,0,-4.08124,-3.61191,0.31998\H,0,-5.10841,
 -2.3037,0.92868\C,0,-5.41889,-3.86901,-2.16181\H,0,-4.24864,-3.28385,-
 3.89971\H,0,-5.27244,-1.99906,-3.23645\H,0,-6.43987,-4.05353,-0.25205\
 H,0,-6.59588,-2.46552,-1.0175\H,0,-6.28426,-4.21617,-2.75197\H,0,-4.78
 988,-4.7611,-1.97616\C,0,2.15309,5.78648,-1.85398\O,0,1.56179,6.55576,
 0.82036\O,0,3.21167,-0.99238,-5.46992\C,0,3.19725,-0.23524,-6.66041\H,
 0,3.59406,0.78385,-6.49417\H,0,3.84348,-0.76094,-7.37877\H,0,2.17881,-
 0.15596,-7.08345\C,0,2.86638,6.89294,1.23832\H,0,3.60698,6.73359,0.432
 76\H,0,2.84968,7.96037,1.50387\H,0,3.17145,6.30427,2.12378\C,0,0.50406
 ,4.89235,2.82175\C,0,4.70514,0.40374,-3.56544\C,0,0.40571,-1.51328,-5.
 36393\H,0,0.06769,-0.8714,-6.19816\H,0,-0.48976,-1.99742,-4.94092\H,0,
 1.05976,-2.29017,-5.79141\H,0,4.97124,0.96876,-4.47547\H,0,5.20963,-0.
 57474,-3.642\H,0,5.11729,0.94471,-2.69878\H,0,3.25552,5.85752,-1.81044
 \H,0,1.75313,6.79904,-1.68476\H,0,1.88667,5.46393,-2.87344\H,0,1.42253
 ,5.08482,3.40495\H,0,-0.1008,4.16145,3.3826\H,0,-0.04534,5.84681,2.771
 32\\Version=ES64L-G16RevC.02\HF=-3726.8770266\RMSD=2.404e-09\Dipole=0.
 6362026,-0.2439632,-0.272808\Quadrupole=-1.8811715,-7.7535899,9.634761
 5,14.8788498,-0.3286373,-1.0405801\PG=C01 [X(C42H56Fe1O2P2)]\\@
 The archive entry for this job was punched.


 MEMORIES ARE LIKE AN ENGLISH GRAMMER LESSON -
 PRESENT TENSE, AND PAST PERFECT.
 Job cpu time:       0 days  1 hours 34 minutes  8.5 seconds.
 Elapsed time:       0 days  0 hours  3 minutes 15.8 seconds.
 File lengths (MBytes):  RWF=    544 Int=      0 D2E=      0 Chk=     44 Scr=     32
 Normal termination of Gaussian 16 at Fri Sep 29 19:34:52 2023.
