 Entering Gaussian System, Link 0=g16
 Input=free_ligand_L6_SP.inp
 Output=free_ligand_L6_SP.log
 Initial command:
 /sw/arch/RHEL8/EB_production/2022/software/Gaussian/g16.c02/l1.exe "/scratch-local/adarsh.3962537/Gau-1176976.inp" -scrdir="/scratch-local/adarsh.3962537/"
 Entering Link 1 = /sw/arch/RHEL8/EB_production/2022/software/Gaussian/g16.c02/l1.exe PID=   1176989.
  
 Copyright (c) 1988-2021, Gaussian, Inc.  All Rights Reserved.
  
 This is part of the Gaussian(R) 16 program.  It is based on
 the Gaussian(R) 09 system (copyright 2009, Gaussian, Inc.),
 the Gaussian(R) 03 system (copyright 2003, Gaussian, Inc.),
 the Gaussian(R) 98 system (copyright 1998, Gaussian, Inc.),
 the Gaussian(R) 94 system (copyright 1995, Gaussian, Inc.),
 the Gaussian 92(TM) system (copyright 1992, Gaussian, Inc.),
 the Gaussian 90(TM) system (copyright 1990, Gaussian, Inc.),
 the Gaussian 88(TM) system (copyright 1988, Gaussian, Inc.),
 the Gaussian 86(TM) system (copyright 1986, Carnegie Mellon
 University), and the Gaussian 82(TM) system (copyright 1983,
 Carnegie Mellon University). Gaussian is a federally registered
 trademark of Gaussian, Inc.
  
 This software contains proprietary and confidential information,
 including trade secrets, belonging to Gaussian, Inc.
  
 This software is provided under written license and may be
 used, copied, transmitted, or stored only in accord with that
 written license.
  
 The following legend is applicable only to US Government
 contracts under FAR:
  
                    RESTRICTED RIGHTS LEGEND
  
 Use, reproduction and disclosure by the US Government is
 subject to restrictions as set forth in subparagraphs (a)
 and (c) of the Commercial Computer Software - Restricted
 Rights clause in FAR 52.227-19.
  
 Gaussian, Inc.
 340 Quinnipiac St., Bldg. 40, Wallingford CT 06492
  
  
 ---------------------------------------------------------------
 Warning -- This program may not be used in any manner that
 competes with the business of Gaussian, Inc. or will provide
 assistance to any competitor of Gaussian, Inc.  The licensee
 of this program is prohibited from giving any competitor of
 Gaussian, Inc. access to this program.  By using this program,
 the user acknowledges that Gaussian, Inc. is engaged in the
 business of creating and licensing software in the field of
 computational chemistry and represents and warrants to the
 licensee that it is not a competitor of Gaussian, Inc. and that
 it will not use this program in any manner prohibited above.
 ---------------------------------------------------------------
  

 Cite this work as:
 Gaussian 16, Revision C.02,
 M. J. Frisch, G. W. Trucks, H. B. Schlegel, G. E. Scuseria, 
 M. A. Robb, J. R. Cheeseman, G. Scalmani, V. Barone, 
 G. A. Petersson, H. Nakatsuji, X. Li, M. Caricato, A. V. Marenich, 
 J. Bloino, B. G. Janesko, R. Gomperts, B. Mennucci, H. P. Hratchian, 
 J. V. Ortiz, A. F. Izmaylov, J. L. Sonnenberg, D. Williams-Young, 
 F. Ding, F. Lipparini, F. Egidi, J. Goings, B. Peng, A. Petrone, 
 T. Henderson, D. Ranasinghe, V. G. Zakrzewski, J. Gao, N. Rega, 
 G. Zheng, W. Liang, M. Hada, M. Ehara, K. Toyota, R. Fukuda, 
 J. Hasegawa, M. Ishida, T. Nakajima, Y. Honda, O. Kitao, H. Nakai, 
 T. Vreven, K. Throssell, J. A. Montgomery, Jr., J. E. Peralta, 
 F. Ogliaro, M. J. Bearpark, J. J. Heyd, E. N. Brothers, K. N. Kudin, 
 V. N. Staroverov, T. A. Keith, R. Kobayashi, J. Normand, 
 K. Raghavachari, A. P. Rendell, J. C. Burant, S. S. Iyengar, 
 J. Tomasi, M. Cossi, J. M. Millam, M. Klene, C. Adamo, R. Cammi, 
 J. W. Ochterski, R. L. Martin, K. Morokuma, O. Farkas, 
 J. B. Foresman, and D. J. Fox, Gaussian, Inc., Wallingford CT, 2019.
 
 ******************************************
 Gaussian 16:  ES64L-G16RevC.02  7-Dec-2021
                29-Sep-2023 
 ******************************************
 %nprocshared=32
 Will use up to   32 processors via shared memory.
 %mem=30GB
 %chk=free_ligand_L6.chk
 ----------------------------------------------------------------------
 #p pop=nbo pbe1pbe/def2svpp empiricaldispersion=gd3bj integral=grid=ul
 trafinegrid scf=(xqc,maxconventionalcycles=90) nosymm
 ----------------------------------------------------------------------
 1/38=1,172=1/1;
 2/12=2,15=1,17=6,18=5,40=1/2;
 3/5=43,7=202,11=2,25=1,30=1,74=-13,75=-5,124=41/1,2,3;
 4//1;
 5/5=2,8=3,13=1,38=5,85=90/2,8;
 6/7=2,8=2,9=2,10=2,28=1,40=1/1,7;
 99/5=1,9=1/99;
 Leave Link    1 at Fri Sep 29 19:31:54 2023, MaxMem=  4026531840 cpu:               0.2 elap:               0.9
 (Enter /sw/arch/RHEL8/EB_production/2022/software/Gaussian/g16.c02/l101.exe)
 ----
 Cisa
 ----
 Symbolic Z-matrix:
 Charge =  0 Multiplicity = 1
 P                     0.22257   0.92345  -0.67407 
 C                     1.12548   0.44499  -2.18189 
 C                     0.4      -0.23449  -3.15916 
 C                     1.03578  -0.71675  -4.30177 
 C                     2.39747  -0.50138  -4.48885 
 C                     3.11969   0.20122  -3.5201 
 C                     2.49379   0.66449  -2.36586 
 C                     0.83863   2.57292  -0.20597 
 C                     0.59399   3.0274    1.09459 
 C                     0.85533   4.35025   1.43851 
 C                     1.36124   5.2421    0.49422 
 C                     1.59692   4.793    -0.80268 
 C                     1.33738   3.46859  -1.15575 
 P                    -2.51114  -0.8668    0.05047 
 C                    -1.05865  -2.03766   0.21491 
 C                    -1.36667  -3.44899   0.70703 
 C                     0.73809  -0.16812   0.65901 
 C                     0.03376  -1.37866   1.01078 
 C                     0.57301  -1.8302    2.25231 
 C                     1.59908  -0.93219   2.66098 
 C                     1.71487   0.08788   1.68102 
 H                    -0.67691  -0.38333  -3.01555 
 H                     3.07845   1.19201  -1.60767 
 H                     0.18558   2.34886   1.84797 
 H                     1.52637   3.14657  -2.18321 
 H                    -0.71346  -2.11464  -0.83249 
 H                    -0.42707  -4.02308   0.76444 
 H                    -2.03596  -3.98018   0.01557 
 H                    -1.82924  -3.4591    1.70404 
 H                     2.41674   0.92111   1.69941 
 Fe                    2.03384  -1.73207   0.82648 
 C                     3.10395  -3.46638   1.01087 
 C                     3.98303  -2.35077   0.91429 
 C                     3.73189  -1.69593  -0.32413 
 C                     2.69596  -2.41036  -0.99584 
 C                     2.31179  -3.50465  -0.17276 
 H                     3.03375  -4.15566   1.85266 
 H                     4.25124  -0.81271  -0.69206 
 H                     2.26759  -2.16396  -1.96734 
 H                     1.54183  -4.24013  -0.40642 
 H                     2.89836  -0.87938  -5.38257 
 H                     1.56779   6.27864   0.76692 
 H                     2.21986  -1.03466   3.55084 
 H                     0.28564  -2.73882   2.77951 
 H                     4.703    -2.03572   1.66986 
 C                    -3.10096  -0.32787   1.72668 
 C                    -3.08347  -1.36377   2.85477 
 C                    -2.36206   0.94548   2.16685 
 H                    -4.15628  -0.04876   1.5269 
 C                    -3.6857   -0.78154   4.1334 
 H                    -2.03628  -1.6529    3.05337 
 H                    -3.62538  -2.27888   2.56739 
 C                    -2.95144   1.52504   3.44836 
 H                    -1.29822   0.69418   2.33477 
 H                    -2.39147   1.69623   1.35119 
 C                    -2.96505   0.4904    4.56841 
 H                    -3.64973  -1.53941   4.935 
 H                    -4.75659  -0.55959   3.96192 
 H                    -2.37727   2.41966   3.74641 
 H                    -3.98494   1.8677    3.24843 
 H                    -3.4385    0.90966   5.4726 
 H                    -1.92272   0.24171   4.84658 
 C                     0.54451   4.78879   2.84794 
 F                    -0.76835   4.67619   3.09162 
 F                     0.89434   6.04958   3.06768 
 F                     1.17387   4.01761   3.73576 
 C                     2.07883   5.74196  -1.87265 
 F                     3.00949   5.16679  -2.63517 
 F                     2.58996   6.8526   -1.35442 
 F                     1.06782   6.08979  -2.67482 
 C                     4.58329   0.5002   -3.73986 
 F                     5.247     0.51665  -2.57799 
 F                     4.74192   1.69622  -4.30393 
 F                     5.15315  -0.40473  -4.52791 
 C                     0.19753  -1.46281  -5.3076 
 F                    -0.42302  -2.49618  -4.72418 
 F                     0.91892  -1.92927  -6.31717 
 F                    -0.75697  -0.67019  -5.80671 
 C                    -3.8902   -1.78749  -0.7725 
 C                    -3.39553  -2.4228   -2.07919 
 C                    -4.72954  -2.76419   0.05744 
 H                    -4.57236  -0.9595   -1.04963 
 C                    -4.55967  -2.97481  -2.89722 
 H                    -2.69809  -3.24917  -1.85165 
 H                    -2.81778  -1.68876  -2.67167 
 C                    -5.88326  -3.31585  -0.78102 
 H                    -4.10766  -3.59984   0.4202 
 H                    -5.1335   -2.2565    0.9494 
 C                    -5.39328  -3.95411  -2.07683 
 H                    -4.17497  -3.45898  -3.81121 
 H                    -5.20151  -2.13647  -3.23232 
 H                    -6.45759  -4.04461  -0.18365 
 H                    -6.5814   -2.49081  -1.02118 
 H                    -6.24921  -4.318    -2.67037 
 H                    -4.77909  -4.84385  -1.83829 
 
 ITRead=  0  0  0  0  0  0  0  0  0  0  0  0  0  0  0  0  0  0  0  0
 ITRead=  0  0  0  0  0  0  0  0  0  0  0  0  0  0  0  0  0  0  0  0
 ITRead=  0  0  0  0  0  0  0  0  0  0  0  0  0  0  0  0  0  0  0  0
 ITRead=  0  0  0  0  0  0  0  0  0  0  0  0  0  0  0  0  0  0  0  0
 ITRead=  0  0  0  0  0  0  0  0  0  0  0  0  0  0  0
 MicOpt= -1 -1 -1 -1 -1 -1 -1 -1 -1 -1 -1 -1 -1 -1 -1 -1 -1 -1 -1 -1
 MicOpt= -1 -1 -1 -1 -1 -1 -1 -1 -1 -1 -1 -1 -1 -1 -1 -1 -1 -1 -1 -1
 MicOpt= -1 -1 -1 -1 -1 -1 -1 -1 -1 -1 -1 -1 -1 -1 -1 -1 -1 -1 -1 -1
 MicOpt= -1 -1 -1 -1 -1 -1 -1 -1 -1 -1 -1 -1 -1 -1 -1 -1 -1 -1 -1 -1
 MicOpt= -1 -1 -1 -1 -1 -1 -1 -1 -1 -1 -1 -1 -1 -1 -1
 NAtoms=     95 NQM=       95 NQMF=       0 NMMI=      0 NMMIF=      0
                NMic=       0 NMicF=      0.
                    Isotopes and Nuclear Properties:
 (Nuclear quadrupole moments (NQMom) in fm**2, nuclear magnetic moments (NMagM)
  in nuclear magnetons)

  Atom         1           2           3           4           5           6           7           8           9          10
 IAtWgt=          31          12          12          12          12          12          12          12          12          12
 AtmWgt=  30.9737634  12.0000000  12.0000000  12.0000000  12.0000000  12.0000000  12.0000000  12.0000000  12.0000000  12.0000000
 NucSpn=           1           0           0           0           0           0           0           0           0           0
 AtZEff=  -0.0000000  -0.0000000  -0.0000000  -0.0000000  -0.0000000  -0.0000000  -0.0000000  -0.0000000  -0.0000000  -0.0000000
 NQMom=    0.0000000   0.0000000   0.0000000   0.0000000   0.0000000   0.0000000   0.0000000   0.0000000   0.0000000   0.0000000
 NMagM=    1.1316000   0.0000000   0.0000000   0.0000000   0.0000000   0.0000000   0.0000000   0.0000000   0.0000000   0.0000000
 AtZNuc=  15.0000000   6.0000000   6.0000000   6.0000000   6.0000000   6.0000000   6.0000000   6.0000000   6.0000000   6.0000000

  Atom        11          12          13          14          15          16          17          18          19          20
 IAtWgt=          12          12          12          31          12          12          12          12          12          12
 AtmWgt=  12.0000000  12.0000000  12.0000000  30.9737634  12.0000000  12.0000000  12.0000000  12.0000000  12.0000000  12.0000000
 NucSpn=           0           0           0           1           0           0           0           0           0           0
 AtZEff=  -0.0000000  -0.0000000  -0.0000000  -0.0000000  -0.0000000  -0.0000000  -0.0000000  -0.0000000  -0.0000000  -0.0000000
 NQMom=    0.0000000   0.0000000   0.0000000   0.0000000   0.0000000   0.0000000   0.0000000   0.0000000   0.0000000   0.0000000
 NMagM=    0.0000000   0.0000000   0.0000000   1.1316000   0.0000000   0.0000000   0.0000000   0.0000000   0.0000000   0.0000000
 AtZNuc=   6.0000000   6.0000000   6.0000000  15.0000000   6.0000000   6.0000000   6.0000000   6.0000000   6.0000000   6.0000000

  Atom        21          22          23          24          25          26          27          28          29          30
 IAtWgt=          12           1           1           1           1           1           1           1           1           1
 AtmWgt=  12.0000000   1.0078250   1.0078250   1.0078250   1.0078250   1.0078250   1.0078250   1.0078250   1.0078250   1.0078250
 NucSpn=           0           1           1           1           1           1           1           1           1           1
 AtZEff=  -0.0000000  -0.0000000  -0.0000000  -0.0000000  -0.0000000  -0.0000000  -0.0000000  -0.0000000  -0.0000000  -0.0000000
 NQMom=    0.0000000   0.0000000   0.0000000   0.0000000   0.0000000   0.0000000   0.0000000   0.0000000   0.0000000   0.0000000
 NMagM=    0.0000000   2.7928460   2.7928460   2.7928460   2.7928460   2.7928460   2.7928460   2.7928460   2.7928460   2.7928460
 AtZNuc=   6.0000000   1.0000000   1.0000000   1.0000000   1.0000000   1.0000000   1.0000000   1.0000000   1.0000000   1.0000000

  Atom        31          32          33          34          35          36          37          38          39          40
 IAtWgt=          56          12          12          12          12          12           1           1           1           1
 AtmWgt=  55.9349393  12.0000000  12.0000000  12.0000000  12.0000000  12.0000000   1.0078250   1.0078250   1.0078250   1.0078250
 NucSpn=           0           0           0           0           0           0           1           1           1           1
 AtZEff=  -0.0000000  -0.0000000  -0.0000000  -0.0000000  -0.0000000  -0.0000000  -0.0000000  -0.0000000  -0.0000000  -0.0000000
 NQMom=    0.0000000   0.0000000   0.0000000   0.0000000   0.0000000   0.0000000   0.0000000   0.0000000   0.0000000   0.0000000
 NMagM=    0.0000000   0.0000000   0.0000000   0.0000000   0.0000000   0.0000000   2.7928460   2.7928460   2.7928460   2.7928460
 AtZNuc=  26.0000000   6.0000000   6.0000000   6.0000000   6.0000000   6.0000000   1.0000000   1.0000000   1.0000000   1.0000000

  Atom        41          42          43          44          45          46          47          48          49          50
 IAtWgt=           1           1           1           1           1          12          12          12           1          12
 AtmWgt=   1.0078250   1.0078250   1.0078250   1.0078250   1.0078250  12.0000000  12.0000000  12.0000000   1.0078250  12.0000000
 NucSpn=           1           1           1           1           1           0           0           0           1           0
 AtZEff=  -0.0000000  -0.0000000  -0.0000000  -0.0000000  -0.0000000  -0.0000000  -0.0000000  -0.0000000  -0.0000000  -0.0000000
 NQMom=    0.0000000   0.0000000   0.0000000   0.0000000   0.0000000   0.0000000   0.0000000   0.0000000   0.0000000   0.0000000
 NMagM=    2.7928460   2.7928460   2.7928460   2.7928460   2.7928460   0.0000000   0.0000000   0.0000000   2.7928460   0.0000000
 AtZNuc=   1.0000000   1.0000000   1.0000000   1.0000000   1.0000000   6.0000000   6.0000000   6.0000000   1.0000000   6.0000000

  Atom        51          52          53          54          55          56          57          58          59          60
 IAtWgt=           1           1          12           1           1          12           1           1           1           1
 AtmWgt=   1.0078250   1.0078250  12.0000000   1.0078250   1.0078250  12.0000000   1.0078250   1.0078250   1.0078250   1.0078250
 NucSpn=           1           1           0           1           1           0           1           1           1           1
 AtZEff=  -0.0000000  -0.0000000  -0.0000000  -0.0000000  -0.0000000  -0.0000000  -0.0000000  -0.0000000  -0.0000000  -0.0000000
 NQMom=    0.0000000   0.0000000   0.0000000   0.0000000   0.0000000   0.0000000   0.0000000   0.0000000   0.0000000   0.0000000
 NMagM=    2.7928460   2.7928460   0.0000000   2.7928460   2.7928460   0.0000000   2.7928460   2.7928460   2.7928460   2.7928460
 AtZNuc=   1.0000000   1.0000000   6.0000000   1.0000000   1.0000000   6.0000000   1.0000000   1.0000000   1.0000000   1.0000000

  Atom        61          62          63          64          65          66          67          68          69          70
 IAtWgt=           1           1          12          19          19          19          12          19          19          19
 AtmWgt=   1.0078250   1.0078250  12.0000000  18.9984032  18.9984032  18.9984032  12.0000000  18.9984032  18.9984032  18.9984032
 NucSpn=           1           1           0           1           1           1           0           1           1           1
 AtZEff=  -0.0000000  -0.0000000  -0.0000000  -0.0000000  -0.0000000  -0.0000000  -0.0000000  -0.0000000  -0.0000000  -0.0000000
 NQMom=    0.0000000   0.0000000   0.0000000   0.0000000   0.0000000   0.0000000   0.0000000   0.0000000   0.0000000   0.0000000
 NMagM=    2.7928460   2.7928460   0.0000000   2.6288670   2.6288670   2.6288670   0.0000000   2.6288670   2.6288670   2.6288670
 AtZNuc=   1.0000000   1.0000000   6.0000000   9.0000000   9.0000000   9.0000000   6.0000000   9.0000000   9.0000000   9.0000000

  Atom        71          72          73          74          75          76          77          78          79          80
 IAtWgt=          12          19          19          19          12          19          19          19          12          12
 AtmWgt=  12.0000000  18.9984032  18.9984032  18.9984032  12.0000000  18.9984032  18.9984032  18.9984032  12.0000000  12.0000000
 NucSpn=           0           1           1           1           0           1           1           1           0           0
 AtZEff=  -0.0000000  -0.0000000  -0.0000000  -0.0000000  -0.0000000  -0.0000000  -0.0000000  -0.0000000  -0.0000000  -0.0000000
 NQMom=    0.0000000   0.0000000   0.0000000   0.0000000   0.0000000   0.0000000   0.0000000   0.0000000   0.0000000   0.0000000
 NMagM=    0.0000000   2.6288670   2.6288670   2.6288670   0.0000000   2.6288670   2.6288670   2.6288670   0.0000000   0.0000000
 AtZNuc=   6.0000000   9.0000000   9.0000000   9.0000000   6.0000000   9.0000000   9.0000000   9.0000000   6.0000000   6.0000000

  Atom        81          82          83          84          85          86          87          88          89          90
 IAtWgt=          12           1          12           1           1          12           1           1          12           1
 AtmWgt=  12.0000000   1.0078250  12.0000000   1.0078250   1.0078250  12.0000000   1.0078250   1.0078250  12.0000000   1.0078250
 NucSpn=           0           1           0           1           1           0           1           1           0           1
 AtZEff=  -0.0000000  -0.0000000  -0.0000000  -0.0000000  -0.0000000  -0.0000000  -0.0000000  -0.0000000  -0.0000000  -0.0000000
 NQMom=    0.0000000   0.0000000   0.0000000   0.0000000   0.0000000   0.0000000   0.0000000   0.0000000   0.0000000   0.0000000
 NMagM=    0.0000000   2.7928460   0.0000000   2.7928460   2.7928460   0.0000000   2.7928460   2.7928460   0.0000000   2.7928460
 AtZNuc=   6.0000000   1.0000000   6.0000000   1.0000000   1.0000000   6.0000000   1.0000000   1.0000000   6.0000000   1.0000000

  Atom        91          92          93          94          95
 IAtWgt=           1           1           1           1           1
 AtmWgt=   1.0078250   1.0078250   1.0078250   1.0078250   1.0078250
 NucSpn=           1           1           1           1           1
 AtZEff=  -0.0000000  -0.0000000  -0.0000000  -0.0000000  -0.0000000
 NQMom=    0.0000000   0.0000000   0.0000000   0.0000000   0.0000000
 NMagM=    2.7928460   2.7928460   2.7928460   2.7928460   2.7928460
 AtZNuc=   1.0000000   1.0000000   1.0000000   1.0000000   1.0000000
 Leave Link  101 at Fri Sep 29 19:31:55 2023, MaxMem=  4026531840 cpu:               0.1 elap:               0.1
 (Enter /sw/arch/RHEL8/EB_production/2022/software/Gaussian/g16.c02/l202.exe)
 Symmetry turned off by external request.
 Stoichiometry    C40H40F12FeP2
 Framework group  C1[X(C40H40F12FeP2)]
 Deg. of freedom   279
 Full point group                 C1      NOp   1
                          Input orientation:                          
 ---------------------------------------------------------------------
 Center     Atomic      Atomic             Coordinates (Angstroms)
 Number     Number       Type             X           Y           Z
 ---------------------------------------------------------------------
      1         15           0        0.222570    0.923450   -0.674070
      2          6           0        1.125480    0.444990   -2.181890
      3          6           0        0.400000   -0.234490   -3.159160
      4          6           0        1.035780   -0.716750   -4.301770
      5          6           0        2.397470   -0.501380   -4.488850
      6          6           0        3.119690    0.201220   -3.520100
      7          6           0        2.493790    0.664490   -2.365860
      8          6           0        0.838630    2.572920   -0.205970
      9          6           0        0.593990    3.027400    1.094590
     10          6           0        0.855330    4.350250    1.438510
     11          6           0        1.361240    5.242100    0.494220
     12          6           0        1.596920    4.793000   -0.802680
     13          6           0        1.337380    3.468590   -1.155750
     14         15           0       -2.511140   -0.866800    0.050470
     15          6           0       -1.058650   -2.037660    0.214910
     16          6           0       -1.366670   -3.448990    0.707030
     17          6           0        0.738090   -0.168120    0.659010
     18          6           0        0.033760   -1.378660    1.010780
     19          6           0        0.573010   -1.830200    2.252310
     20          6           0        1.599080   -0.932190    2.660980
     21          6           0        1.714870    0.087880    1.681020
     22          1           0       -0.676910   -0.383330   -3.015550
     23          1           0        3.078450    1.192010   -1.607670
     24          1           0        0.185580    2.348860    1.847970
     25          1           0        1.526370    3.146570   -2.183210
     26          1           0       -0.713460   -2.114640   -0.832490
     27          1           0       -0.427070   -4.023080    0.764440
     28          1           0       -2.035960   -3.980180    0.015570
     29          1           0       -1.829240   -3.459100    1.704040
     30          1           0        2.416740    0.921110    1.699410
     31         26           0        2.033840   -1.732070    0.826480
     32          6           0        3.103950   -3.466380    1.010870
     33          6           0        3.983030   -2.350770    0.914290
     34          6           0        3.731890   -1.695930   -0.324130
     35          6           0        2.695960   -2.410360   -0.995840
     36          6           0        2.311790   -3.504650   -0.172760
     37          1           0        3.033750   -4.155660    1.852660
     38          1           0        4.251240   -0.812710   -0.692060
     39          1           0        2.267590   -2.163960   -1.967340
     40          1           0        1.541830   -4.240130   -0.406420
     41          1           0        2.898360   -0.879380   -5.382570
     42          1           0        1.567790    6.278640    0.766920
     43          1           0        2.219860   -1.034660    3.550840
     44          1           0        0.285640   -2.738820    2.779510
     45          1           0        4.703000   -2.035720    1.669860
     46          6           0       -3.100960   -0.327870    1.726680
     47          6           0       -3.083470   -1.363770    2.854770
     48          6           0       -2.362060    0.945480    2.166850
     49          1           0       -4.156280   -0.048760    1.526900
     50          6           0       -3.685700   -0.781540    4.133400
     51          1           0       -2.036280   -1.652900    3.053370
     52          1           0       -3.625380   -2.278880    2.567390
     53          6           0       -2.951440    1.525040    3.448360
     54          1           0       -1.298220    0.694180    2.334770
     55          1           0       -2.391470    1.696230    1.351190
     56          6           0       -2.965050    0.490400    4.568410
     57          1           0       -3.649730   -1.539410    4.935000
     58          1           0       -4.756590   -0.559590    3.961920
     59          1           0       -2.377270    2.419660    3.746410
     60          1           0       -3.984940    1.867700    3.248430
     61          1           0       -3.438500    0.909660    5.472600
     62          1           0       -1.922720    0.241710    4.846580
     63          6           0        0.544510    4.788790    2.847940
     64          9           0       -0.768350    4.676190    3.091620
     65          9           0        0.894340    6.049580    3.067680
     66          9           0        1.173870    4.017610    3.735760
     67          6           0        2.078830    5.741960   -1.872650
     68          9           0        3.009490    5.166790   -2.635170
     69          9           0        2.589960    6.852600   -1.354420
     70          9           0        1.067820    6.089790   -2.674820
     71          6           0        4.583290    0.500200   -3.739860
     72          9           0        5.247000    0.516650   -2.577990
     73          9           0        4.741920    1.696220   -4.303930
     74          9           0        5.153150   -0.404730   -4.527910
     75          6           0        0.197530   -1.462810   -5.307600
     76          9           0       -0.423020   -2.496180   -4.724180
     77          9           0        0.918920   -1.929270   -6.317170
     78          9           0       -0.756970   -0.670190   -5.806710
     79          6           0       -3.890200   -1.787490   -0.772500
     80          6           0       -3.395530   -2.422800   -2.079190
     81          6           0       -4.729540   -2.764190    0.057440
     82          1           0       -4.572360   -0.959500   -1.049630
     83          6           0       -4.559670   -2.974810   -2.897220
     84          1           0       -2.698090   -3.249170   -1.851650
     85          1           0       -2.817780   -1.688760   -2.671670
     86          6           0       -5.883260   -3.315850   -0.781020
     87          1           0       -4.107660   -3.599840    0.420200
     88          1           0       -5.133500   -2.256500    0.949400
     89          6           0       -5.393280   -3.954110   -2.076830
     90          1           0       -4.174970   -3.458980   -3.811210
     91          1           0       -5.201510   -2.136470   -3.232320
     92          1           0       -6.457590   -4.044610   -0.183650
     93          1           0       -6.581400   -2.490810   -1.021180
     94          1           0       -6.249210   -4.318000   -2.670370
     95          1           0       -4.779090   -4.843850   -1.838290
 ---------------------------------------------------------------------
 Rotational constants (GHZ):           0.0449897           0.0406595           0.0299736
 Leave Link  202 at Fri Sep 29 19:31:55 2023, MaxMem=  4026531840 cpu:               0.1 elap:               0.0
 (Enter /sw/arch/RHEL8/EB_production/2022/software/Gaussian/g16.c02/l301.exe)
 Standard basis: def2SVPP (5D, 7F)
 Ernie: Thresh=  0.10000D-02 Tol=  0.10000D-05 Strict=F.
   868 basis functions,  1605 primitive gaussians,   924 cartesian basis functions
   222 alpha electrons      222 beta electrons
       nuclear repulsion energy     10078.8364397789 Hartrees.
 IExCor= 1009 DFT=T Ex+Corr=PBE1PBE ExCW=0 ScaHFX=  0.250000
 ScaDFX=  0.750000  0.750000  1.000000  1.000000 ScalE2=  1.000000  1.000000
 IRadAn=      5 IRanWt=     -1 IRanGd=            0 ICorTp=0 IEmpDi=141
 NAtoms=   95 NActive=   95 NUniq=   95 SFac= 1.00D+00 NAtFMM=   60 NAOKFM=T Big=T
 Integral buffers will be    131072 words long.
 Raffenetti 2 integral format.
 Two-electron integral symmetry is turned off.
 R6Disp:  Grimme-D3(BJ) Dispersion energy=       -0.1439788226 Hartrees.
 Nuclear repulsion after empirical dispersion term =    10078.6924609563 Hartrees.
 Leave Link  301 at Fri Sep 29 19:31:55 2023, MaxMem=  4026531840 cpu:               0.4 elap:               0.1
 (Enter /sw/arch/RHEL8/EB_production/2022/software/Gaussian/g16.c02/l302.exe)
 NPDir=0 NMtPBC=     1 NCelOv=     1 NCel=       1 NClECP=     1 NCelD=      1
         NCelK=      1 NCelE2=     1 NClLst=     1 CellRange=     0.0.
 One-electron integrals computed using PRISM.
   1 Symmetry operations used in ECPInt.
 ECPInt:  NShTT=   87571 NPrTT=  360858 LenC2=   68316 LenP2D=  168756.
 LDataN:  DoStor=T MaxTD1= 4 Len=   56
 NBasis=   868 RedAO= T EigKep=  2.30D-04  NBF=   868
 NBsUse=   868 1.00D-06 EigRej= -1.00D+00 NBFU=   868
 Precomputing XC quadrature grid using
 IXCGrd= 4 IRadAn=           5 IRanWt=          -1 IRanGd=           0 AccXCQ= 0.00D+00.
 Generated NRdTot=       0 NPtTot=           0 NUsed=           0 NTot=          32
 NSgBfM=   890   889   890   890   890 MxSgAt=    95 MxSgA2=    95.
 Leave Link  302 at Fri Sep 29 19:31:56 2023, MaxMem=  4026531840 cpu:              23.3 elap:               1.5
 (Enter /sw/arch/RHEL8/EB_production/2022/software/Gaussian/g16.c02/l303.exe)
 DipDrv:  MaxL=1.
 Leave Link  303 at Fri Sep 29 19:31:56 2023, MaxMem=  4026531840 cpu:               1.6 elap:               0.2
 (Enter /sw/arch/RHEL8/EB_production/2022/software/Gaussian/g16.c02/l401.exe)
 ExpMin= 3.37D-02 ExpMax= 6.09D+04 ExpMxC= 9.15D+03 IAcc=3 IRadAn=         5 AccDes= 0.00D+00
 Harris functional with IExCor= 1009 and IRadAn=       5 diagonalized for initial guess.
 HarFok:  IExCor= 1009 AccDes= 0.00D+00 IRadAn=         5 IDoV= 1 UseB2=F ITyADJ=14
 ICtDFT=  3500011 ScaDFX=  1.000000  1.000000  1.000000  1.000000
 FoFCou: FMM=F IPFlag=           0 FMFlag=      100000 FMFlg1=        2001
         NFxFlg=           0 DoJE=T BraDBF=F KetDBF=T FulRan=T
         wScrn=  0.000000 ICntrl=       500 IOpCl=  0 I1Cent=   200000004 NGrid=           0
         NMat0=    1 NMatS0=      1 NMatT0=    0 NMatD0=    1 NMtDS0=    0 NMtDT0=    0
 Symmetry not used in FoFCou.
 Harris En= -4687.55248244234    
 JPrj=0 DoOrth=F DoCkMO=F.
 Leave Link  401 at Fri Sep 29 19:32:01 2023, MaxMem=  4026531840 cpu:             111.0 elap:               4.3
 (Enter /sw/arch/RHEL8/EB_production/2022/software/Gaussian/g16.c02/l502.exe)
 Two-electron integral symmetry not used.
 Closed shell SCF:
 Using DIIS extrapolation, IDIIS=  1040.
 NGot=  4026531840 LenX=  4024783664 LenY=  4023928964
 Requested convergence on RMS density matrix=1.00D-08 within  90 cycles.
 Requested convergence on MAX density matrix=1.00D-06.
 Requested convergence on             energy=1.00D-06.
 No special actions if energy rises.
 Fock matrices will be formed incrementally for  20 cycles.

 Cycle   1  Pass 1  IDiag  1:
 FoFJK:  IHMeth= 1 ICntrl=       0 DoSepK=F KAlg= 0 I1Cent=           0 FoldK=F
 IRaf= 910000000 NMat=       1 IRICut=       1 DoRegI=T DoRafI=F ISym2E= 0 IDoP0=0 IntGTp=1.
 FoFCou: FMM=T IPFlag=           0 FMFlag=      100000 FMFlg1=        2001
         NFxFlg=           0 DoJE=F BraDBF=F KetDBF=F FulRan=T
         wScrn=  0.000000 ICntrl=         0 IOpCl=  0 I1Cent=           0 NGrid=           0
         NMat0=    1 NMatS0=      1 NMatT0=    0 NMatD0=    1 NMtDS0=    0 NMtDT0=    0
 Symmetry not used in FoFCou.
 FMM levels:  10  Number of levels for PrismC:   9
 E= -4686.12750785974    
 DIIS: error= 2.21D-02 at cycle   1 NSaved=   1.
 NSaved= 1 IEnMin= 1 EnMin= -4686.12750785974     IErMin= 1 ErrMin= 2.21D-02
 ErrMax= 2.21D-02  0.00D+00 EMaxC= 1.00D-01 BMatC= 1.14D+00 BMatP= 1.14D+00
 IDIUse=3 WtCom= 7.79D-01 WtEn= 2.21D-01
 Coeff-Com:  0.100D+01
 Coeff-En:   0.100D+01
 Coeff:      0.100D+01
 Gap=     0.187 Goal=   None    Shift=    0.000
 GapD=    0.187 DampG=1.000 DampE=0.250 DampFc=0.2500 IDamp=-1.
 Damping current iteration by 2.50D-01
 RMSDP=3.32D-03 MaxDP=2.09D-01              OVMax= 1.78D-01

 Cycle   2  Pass 1  IDiag  1:
 RMSU=  8.03D-04    CP:  9.86D-01
 E= -4686.51456859176     Delta-E=       -0.387060732017 Rises=F Damp=T
 DIIS: error= 1.08D-02 at cycle   2 NSaved=   2.
 NSaved= 2 IEnMin= 2 EnMin= -4686.51456859176     IErMin= 2 ErrMin= 1.08D-02
 ErrMax= 1.08D-02  0.00D+00 EMaxC= 1.00D-01 BMatC= 2.71D-01 BMatP= 1.14D+00
 IDIUse=3 WtCom= 8.92D-01 WtEn= 1.08D-01
 Coeff-Com: -0.604D+00 0.160D+01
 Coeff-En:   0.000D+00 0.100D+01
 Coeff:     -0.539D+00 0.154D+01
 Gap=     0.151 Goal=   None    Shift=    0.000
 RMSDP=3.15D-03 MaxDP=3.64D-01 DE=-3.87D-01 OVMax= 4.63D-01

 Cycle   3  Pass 1  IDiag  1:
 RMSU=  3.12D-03    CP:  9.86D-01  1.60D+00
 E= -4685.48133973441     Delta-E=        1.033228857346 Rises=F Damp=F
 DIIS: error= 9.61D-02 at cycle   3 NSaved=   3.
 NSaved= 3 IEnMin= 2 EnMin= -4686.51456859176     IErMin= 2 ErrMin= 1.08D-02
 ErrMax= 9.61D-02  0.00D+00 EMaxC= 1.00D-01 BMatC= 2.74D+00 BMatP= 2.71D-01
 IDIUse=2 WtCom= 0.00D+00 WtEn= 1.00D+00
 Coeff-En:   0.000D+00 0.774D+00 0.226D+00
 Coeff:      0.000D+00 0.774D+00 0.226D+00
 Gap=     0.341 Goal=   None    Shift=    0.000
 RMSDP=4.37D-03 MaxDP=4.13D-01 DE= 1.03D+00 OVMax= 3.44D-01

 Cycle   4  Pass 1  IDiag  1:
 RMSU=  1.38D-03    CP:  9.42D-01  2.74D+00 -2.83D-01
 E= -4685.12151281801     Delta-E=        0.359826916403 Rises=F Damp=F
 DIIS: error= 9.56D-02 at cycle   4 NSaved=   4.
 NSaved= 4 IEnMin= 2 EnMin= -4686.51456859176     IErMin= 2 ErrMin= 1.08D-02
 ErrMax= 9.56D-02  0.00D+00 EMaxC= 1.00D-01 BMatC= 3.46D+00 BMatP= 2.71D-01
 IDIUse=2 WtCom= 0.00D+00 WtEn= 1.00D+00
 EnCoef did     1 forward-backward iterations
 Coeff-En:   0.309D-01 0.000D+00 0.510D+00 0.459D+00
 Coeff:      0.309D-01 0.000D+00 0.510D+00 0.459D+00
 Gap=     0.095 Goal=   None    Shift=    0.000
 RMSDP=1.80D-03 MaxDP=2.30D-01 DE= 3.60D-01 OVMax= 2.70D-01

 Cycle   5  Pass 1  IDiag  1:
 RMSU=  6.86D-04    CP:  9.68D-01  1.58D+00  7.65D-02  4.94D-01
 E= -4687.12618952395     Delta-E=       -2.004676705947 Rises=F Damp=F
 DIIS: error= 1.12D-02 at cycle   5 NSaved=   5.
 NSaved= 5 IEnMin= 5 EnMin= -4687.12618952395     IErMin= 2 ErrMin= 1.08D-02
 ErrMax= 1.12D-02  0.00D+00 EMaxC= 1.00D-01 BMatC= 1.18D-01 BMatP= 2.71D-01
 IDIUse=3 WtCom= 8.88D-01 WtEn= 1.12D-01
 Coeff-Com: -0.579D+00 0.795D+00 0.991D-01-0.111D+00 0.796D+00
 Coeff-En:   0.000D+00 0.000D+00 0.946D-01 0.000D+00 0.905D+00
 Coeff:     -0.514D+00 0.706D+00 0.986D-01-0.988D-01 0.808D+00
 Gap=     0.153 Goal=   None    Shift=    0.000
 RMSDP=6.17D-04 MaxDP=8.05D-02 DE=-2.00D+00 OVMax= 5.06D-02

 Cycle   6  Pass 1  IDiag  1:
 RMSU=  2.35D-04    CP:  9.67D-01  2.01D+00  1.76D-01  2.52D-01  9.89D-01
 E= -4687.22350127621     Delta-E=       -0.097311752255 Rises=F Damp=F
 DIIS: error= 3.90D-03 at cycle   6 NSaved=   6.
 NSaved= 6 IEnMin= 6 EnMin= -4687.22350127621     IErMin= 6 ErrMin= 3.90D-03
 ErrMax= 3.90D-03  0.00D+00 EMaxC= 1.00D-01 BMatC= 6.67D-03 BMatP= 1.18D-01
 IDIUse=3 WtCom= 9.61D-01 WtEn= 3.90D-02
 Coeff-Com: -0.241D+00 0.324D+00 0.467D-01-0.656D-01 0.375D+00 0.561D+00
 Coeff-En:   0.000D+00 0.000D+00 0.000D+00 0.000D+00 0.000D+00 0.100D+01
 Coeff:     -0.232D+00 0.312D+00 0.449D-01-0.631D-01 0.360D+00 0.578D+00
 Gap=     0.125 Goal=   None    Shift=    0.000
 RMSDP=1.50D-04 MaxDP=1.05D-02 DE=-9.73D-02 OVMax= 1.92D-02

 Cycle   7  Pass 1  IDiag  1:
 RMSU=  9.55D-05    CP:  9.67D-01  1.96D+00  1.65D-01  2.65D-01  1.03D+00
                    CP:  5.86D-01
 E= -4687.22640171117     Delta-E=       -0.002900434964 Rises=F Damp=F
 DIIS: error= 2.51D-03 at cycle   7 NSaved=   7.
 NSaved= 7 IEnMin= 7 EnMin= -4687.22640171117     IErMin= 7 ErrMin= 2.51D-03
 ErrMax= 2.51D-03  0.00D+00 EMaxC= 1.00D-01 BMatC= 2.89D-03 BMatP= 6.67D-03
 IDIUse=3 WtCom= 9.75D-01 WtEn= 2.51D-02
 Coeff-Com:  0.149D-01-0.243D-01 0.999D-02-0.173D-01-0.557D-04 0.374D+00
 Coeff-Com:  0.643D+00
 Coeff-En:   0.000D+00 0.000D+00 0.000D+00 0.000D+00 0.000D+00 0.176D+00
 Coeff-En:   0.824D+00
 Coeff:      0.145D-01-0.237D-01 0.974D-02-0.168D-01-0.543D-04 0.369D+00
 Coeff:      0.648D+00
 Gap=     0.125 Goal=   None    Shift=    0.000
 RMSDP=7.71D-05 MaxDP=6.45D-03 DE=-2.90D-03 OVMax= 1.01D-02

 Cycle   8  Pass 1  IDiag  1:
 RMSU=  4.43D-05    CP:  9.68D-01  1.95D+00  1.73D-01  2.52D-01  1.04D+00
                    CP:  7.37D-01  5.82D-01
 E= -4687.22839900598     Delta-E=       -0.001997294810 Rises=F Damp=F
 DIIS: error= 5.57D-04 at cycle   8 NSaved=   8.
 NSaved= 8 IEnMin= 8 EnMin= -4687.22839900598     IErMin= 8 ErrMin= 5.57D-04
 ErrMax= 5.57D-04  0.00D+00 EMaxC= 1.00D-01 BMatC= 2.80D-04 BMatP= 2.89D-03
 IDIUse=3 WtCom= 9.94D-01 WtEn= 5.57D-03
 Coeff-Com:  0.452D-01-0.631D-01 0.128D-02-0.216D-02-0.564D-01 0.137D+00
 Coeff-Com:  0.390D+00 0.548D+00
 Coeff-En:   0.000D+00 0.000D+00 0.000D+00 0.000D+00 0.000D+00 0.000D+00
 Coeff-En:   0.000D+00 0.100D+01
 Coeff:      0.449D-01-0.628D-01 0.127D-02-0.214D-02-0.560D-01 0.136D+00
 Coeff:      0.388D+00 0.551D+00
 Gap=     0.124 Goal=   None    Shift=    0.000
 RMSDP=2.81D-05 MaxDP=2.64D-03 DE=-2.00D-03 OVMax= 3.18D-03

 Cycle   9  Pass 1  IDiag  1:
 RMSU=  1.56D-05    CP:  9.68D-01  1.95D+00  1.76D-01  2.49D-01  1.04D+00
                    CP:  7.41D-01  6.98D-01  6.04D-01
 E= -4687.22863404644     Delta-E=       -0.000235040457 Rises=F Damp=F
 DIIS: error= 1.35D-04 at cycle   9 NSaved=   9.
 NSaved= 9 IEnMin= 9 EnMin= -4687.22863404644     IErMin= 9 ErrMin= 1.35D-04
 ErrMax= 1.35D-04  0.00D+00 EMaxC= 1.00D-01 BMatC= 1.33D-05 BMatP= 2.80D-04
 IDIUse=3 WtCom= 9.99D-01 WtEn= 1.35D-03
 Coeff-Com:  0.196D-01-0.267D-01-0.236D-04 0.217D-03-0.262D-01 0.270D-01
 Coeff-Com:  0.117D+00 0.262D+00 0.627D+00
 Coeff-En:   0.000D+00 0.000D+00 0.000D+00 0.000D+00 0.000D+00 0.000D+00
 Coeff-En:   0.000D+00 0.000D+00 0.100D+01
 Coeff:      0.196D-01-0.266D-01-0.236D-04 0.216D-03-0.262D-01 0.269D-01
 Coeff:      0.117D+00 0.261D+00 0.628D+00
 Gap=     0.124 Goal=   None    Shift=    0.000
 RMSDP=8.66D-06 MaxDP=8.66D-04 DE=-2.35D-04 OVMax= 1.05D-03

 Cycle  10  Pass 1  IDiag  1:
 RMSU=  6.38D-06    CP:  9.68D-01  1.95D+00  1.77D-01  2.48D-01  1.04D+00
                    CP:  7.46D-01  6.93D-01  6.75D-01  7.27D-01
 E= -4687.22864424627     Delta-E=       -0.000010199830 Rises=F Damp=F
 DIIS: error= 4.78D-05 at cycle  10 NSaved=  10.
 NSaved=10 IEnMin=10 EnMin= -4687.22864424627     IErMin=10 ErrMin= 4.78D-05
 ErrMax= 4.78D-05  0.00D+00 EMaxC= 1.00D-01 BMatC= 2.80D-06 BMatP= 1.33D-05
 IDIUse=1 WtCom= 1.00D+00 WtEn= 0.00D+00
 Coeff-Com:  0.589D-02-0.776D-02-0.229D-03 0.319D-03-0.807D-02 0.128D-02
 Coeff-Com:  0.241D-01 0.899D-01 0.384D+00 0.510D+00
 Coeff:      0.589D-02-0.776D-02-0.229D-03 0.319D-03-0.807D-02 0.128D-02
 Coeff:      0.241D-01 0.899D-01 0.384D+00 0.510D+00
 Gap=     0.124 Goal=   None    Shift=    0.000
 RMSDP=3.64D-06 MaxDP=4.49D-04 DE=-1.02D-05 OVMax= 3.21D-04

 Cycle  11  Pass 1  IDiag  1:
 RMSU=  2.04D-06    CP:  9.68D-01  1.95D+00  1.76D-01  2.48D-01  1.04D+00
                    CP:  7.46D-01  6.96D-01  6.66D-01  8.28D-01  6.13D-01
 E= -4687.22864636403     Delta-E=       -0.000002117758 Rises=F Damp=F
 DIIS: error= 4.73D-05 at cycle  11 NSaved=  11.
 NSaved=11 IEnMin=11 EnMin= -4687.22864636403     IErMin=11 ErrMin= 4.73D-05
 ErrMax= 4.73D-05  0.00D+00 EMaxC= 1.00D-01 BMatC= 8.79D-07 BMatP= 2.80D-06
 IDIUse=1 WtCom= 1.00D+00 WtEn= 0.00D+00
 Coeff-Com:  0.116D-02-0.143D-02-0.192D-03 0.147D-03-0.145D-02-0.577D-03
 Coeff-Com:  0.329D-02 0.255D-01 0.163D+00 0.298D+00 0.513D+00
 Coeff:      0.116D-02-0.143D-02-0.192D-03 0.147D-03-0.145D-02-0.577D-03
 Coeff:      0.329D-02 0.255D-01 0.163D+00 0.298D+00 0.513D+00
 Gap=     0.124 Goal=   None    Shift=    0.000
 RMSDP=1.30D-06 MaxDP=1.05D-04 DE=-2.12D-06 OVMax= 1.38D-04

 Cycle  12  Pass 1  IDiag  1:
 RMSU=  8.10D-07    CP:  9.68D-01  1.95D+00  1.76D-01  2.48D-01  1.04D+00
                    CP:  7.45D-01  6.97D-01  6.71D-01  8.29D-01  6.67D-01
                    CP:  6.85D-01
 E= -4687.22864691130     Delta-E=       -0.000000547272 Rises=F Damp=F
 DIIS: error= 2.41D-05 at cycle  12 NSaved=  12.
 NSaved=12 IEnMin=12 EnMin= -4687.22864691130     IErMin=12 ErrMin= 2.41D-05
 ErrMax= 2.41D-05  0.00D+00 EMaxC= 1.00D-01 BMatC= 1.69D-07 BMatP= 8.79D-07
 IDIUse=1 WtCom= 1.00D+00 WtEn= 0.00D+00
 Coeff-Com: -0.803D-04 0.139D-03-0.113D-03 0.472D-04 0.287D-03 0.248D-03
 Coeff-Com:  0.440D-04 0.419D-02 0.448D-01 0.929D-01 0.236D+00 0.622D+00
 Coeff:     -0.803D-04 0.139D-03-0.113D-03 0.472D-04 0.287D-03 0.248D-03
 Coeff:      0.440D-04 0.419D-02 0.448D-01 0.929D-01 0.236D+00 0.622D+00
 Gap=     0.124 Goal=   None    Shift=    0.000
 RMSDP=7.45D-07 MaxDP=7.29D-05 DE=-5.47D-07 OVMax= 1.04D-04

 Cycle  13  Pass 1  IDiag  1:
 RMSU=  3.78D-07    CP:  9.68D-01  1.95D+00  1.76D-01  2.48D-01  1.04D+00
                    CP:  7.45D-01  6.96D-01  6.71D-01  8.38D-01  6.81D-01
                    CP:  8.16D-01  1.01D+00
 E= -4687.22864702375     Delta-E=       -0.000000112450 Rises=F Damp=F
 DIIS: error= 9.00D-06 at cycle  13 NSaved=  13.
 NSaved=13 IEnMin=13 EnMin= -4687.22864702375     IErMin=13 ErrMin= 9.00D-06
 ErrMax= 9.00D-06  0.00D+00 EMaxC= 1.00D-01 BMatC= 2.58D-08 BMatP= 1.69D-07
 IDIUse=1 WtCom= 1.00D+00 WtEn= 0.00D+00
 Coeff-Com: -0.390D-03 0.489D-03-0.211D-04-0.145D-04 0.606D-03 0.522D-03
 Coeff-Com: -0.564D-03-0.510D-02-0.259D-01-0.493D-01-0.670D-01 0.313D+00
 Coeff-Com:  0.834D+00
 Coeff:     -0.390D-03 0.489D-03-0.211D-04-0.145D-04 0.606D-03 0.522D-03
 Coeff:     -0.564D-03-0.510D-02-0.259D-01-0.493D-01-0.670D-01 0.313D+00
 Coeff:      0.834D+00
 Gap=     0.124 Goal=   None    Shift=    0.000
 RMSDP=6.44D-07 MaxDP=6.18D-05 DE=-1.12D-07 OVMax= 1.21D-04

 Cycle  14  Pass 1  IDiag  1:
 RMSU=  2.12D-07    CP:  9.68D-01  1.95D+00  1.76D-01  2.49D-01  1.04D+00
                    CP:  7.45D-01  6.96D-01  6.71D-01  8.48D-01  7.03D-01
                    CP:  8.86D-01  1.36D+00  1.22D+00
 E= -4687.22864705684     Delta-E=       -0.000000033084 Rises=F Damp=F
 DIIS: error= 2.16D-06 at cycle  14 NSaved=  14.
 NSaved=14 IEnMin=14 EnMin= -4687.22864705684     IErMin=14 ErrMin= 2.16D-06
 ErrMax= 2.16D-06  0.00D+00 EMaxC= 1.00D-01 BMatC= 1.72D-09 BMatP= 2.58D-08
 IDIUse=1 WtCom= 1.00D+00 WtEn= 0.00D+00
 Coeff-Com: -0.143D-03 0.175D-03 0.153D-04-0.154D-04 0.145D-03 0.182D-04
 Coeff-Com: -0.426D-03-0.331D-02-0.218D-01-0.454D-01-0.930D-01-0.176D-01
 Coeff-Com:  0.389D+00 0.792D+00
 Coeff:     -0.143D-03 0.175D-03 0.153D-04-0.154D-04 0.145D-03 0.182D-04
 Coeff:     -0.426D-03-0.331D-02-0.218D-01-0.454D-01-0.930D-01-0.176D-01
 Coeff:      0.389D+00 0.792D+00
 Gap=     0.124 Goal=   None    Shift=    0.000
 RMSDP=2.74D-07 MaxDP=3.07D-05 DE=-3.31D-08 OVMax= 7.61D-05

 Cycle  15  Pass 1  IDiag  1:
 RMSU=  9.49D-08    CP:  9.68D-01  1.95D+00  1.76D-01  2.49D-01  1.04D+00
                    CP:  7.45D-01  6.96D-01  6.72D-01  8.51D-01  7.11D-01
                    CP:  9.30D-01  1.56D+00  1.59D+00  1.13D+00
 E= -4687.22864706337     Delta-E=       -0.000000006536 Rises=F Damp=F
 DIIS: error= 2.27D-06 at cycle  15 NSaved=  15.
 NSaved=15 IEnMin=15 EnMin= -4687.22864706337     IErMin=14 ErrMin= 2.16D-06
 ErrMax= 2.27D-06  0.00D+00 EMaxC= 1.00D-01 BMatC= 1.66D-09 BMatP= 1.72D-09
 IDIUse=1 WtCom= 1.00D+00 WtEn= 0.00D+00
 Coeff-Com:  0.845D-05-0.123D-04 0.138D-04-0.441D-05-0.556D-04-0.155D-03
 Coeff-Com: -0.219D-03-0.732D-03-0.502D-02-0.108D-01-0.248D-01-0.528D-01
 Coeff-Com:  0.125D-01 0.319D+00 0.763D+00
 Coeff:      0.845D-05-0.123D-04 0.138D-04-0.441D-05-0.556D-04-0.155D-03
 Coeff:     -0.219D-03-0.732D-03-0.502D-02-0.108D-01-0.248D-01-0.528D-01
 Coeff:      0.125D-01 0.319D+00 0.763D+00
 Gap=     0.124 Goal=   None    Shift=    0.000
 RMSDP=1.30D-07 MaxDP=1.59D-05 DE=-6.54D-09 OVMax= 3.69D-05

 Cycle  16  Pass 1  IDiag  1:
 RMSU=  5.14D-08    CP:  9.68D-01  1.95D+00  1.76D-01  2.49D-01  1.04D+00
                    CP:  7.45D-01  6.96D-01  6.72D-01  8.52D-01  7.12D-01
                    CP:  9.49D-01  1.65D+00  1.72D+00  1.36D+00  1.23D+00
 E= -4687.22864706558     Delta-E=       -0.000000002205 Rises=F Damp=F
 DIIS: error= 8.98D-07 at cycle  16 NSaved=  16.
 NSaved=16 IEnMin=16 EnMin= -4687.22864706558     IErMin=16 ErrMin= 8.98D-07
 ErrMax= 8.98D-07  0.00D+00 EMaxC= 1.00D-01 BMatC= 3.15D-10 BMatP= 1.66D-09
 IDIUse=1 WtCom= 1.00D+00 WtEn= 0.00D+00
 Coeff-Com:  0.429D-04-0.533D-04 0.414D-05 0.205D-05-0.528D-04-0.729D-04
 Coeff-Com: -0.365D-05 0.614D-03 0.483D-02 0.111D-01 0.263D-01-0.553D-02
 Coeff-Com: -0.145D+00-0.203D+00 0.305D+00 0.101D+01
 Coeff:      0.429D-04-0.533D-04 0.414D-05 0.205D-05-0.528D-04-0.729D-04
 Coeff:     -0.365D-05 0.614D-03 0.483D-02 0.111D-01 0.263D-01-0.553D-02
 Coeff:     -0.145D+00-0.203D+00 0.305D+00 0.101D+01
 Gap=     0.124 Goal=   None    Shift=    0.000
 RMSDP=1.12D-07 MaxDP=1.43D-05 DE=-2.20D-09 OVMax= 3.23D-05

 Cycle  17  Pass 1  IDiag  1:
 RMSU=  2.49D-08    CP:  9.68D-01  1.95D+00  1.76D-01  2.49D-01  1.04D+00
                    CP:  7.45D-01  6.96D-01  6.72D-01  8.53D-01  7.14D-01
                    CP:  9.67D-01  1.72D+00  1.84D+00  1.54D+00  1.69D+00
                    CP:  1.36D+00
 E= -4687.22864706674     Delta-E=       -0.000000001162 Rises=F Damp=F
 DIIS: error= 1.74D-07 at cycle  17 NSaved=  17.
 NSaved=17 IEnMin=17 EnMin= -4687.22864706674     IErMin=17 ErrMin= 1.74D-07
 ErrMax= 1.74D-07  0.00D+00 EMaxC= 1.00D-01 BMatC= 2.38D-11 BMatP= 3.15D-10
 IDIUse=1 WtCom= 1.00D+00 WtEn= 0.00D+00
 Coeff-Com:  0.903D-05-0.103D-04 0.486D-06 0.741D-06 0.106D-05 0.136D-04
 Coeff-Com:  0.417D-04 0.289D-03 0.229D-02 0.578D-02 0.149D-01 0.762D-02
 Coeff-Com: -0.654D-01-0.148D+00-0.147D-01 0.453D+00 0.743D+00
 Coeff:      0.903D-05-0.103D-04 0.486D-06 0.741D-06 0.106D-05 0.136D-04
 Coeff:      0.417D-04 0.289D-03 0.229D-02 0.578D-02 0.149D-01 0.762D-02
 Coeff:     -0.654D-01-0.148D+00-0.147D-01 0.453D+00 0.743D+00
 Gap=     0.124 Goal=   None    Shift=    0.000
 RMSDP=3.68D-08 MaxDP=4.41D-06 DE=-1.16D-09 OVMax= 1.04D-05

 Cycle  18  Pass 1  IDiag  1:
 RMSU=  1.00D-08    CP:  9.68D-01  1.95D+00  1.76D-01  2.49D-01  1.04D+00
                    CP:  7.45D-01  6.96D-01  6.72D-01  8.53D-01  7.15D-01
                    CP:  9.71D-01  1.75D+00  1.88D+00  1.60D+00  1.82D+00
                    CP:  1.54D+00  9.28D-01
 E= -4687.22864706668     Delta-E=        0.000000000062 Rises=F Damp=F
 DIIS: error= 6.95D-08 at cycle  18 NSaved=  18.
 NSaved=18 IEnMin=17 EnMin= -4687.22864706674     IErMin=18 ErrMin= 6.95D-08
 ErrMax= 6.95D-08  0.00D+00 EMaxC= 1.00D-01 BMatC= 5.92D-12 BMatP= 2.38D-11
 IDIUse=1 WtCom= 1.00D+00 WtEn= 0.00D+00
 Coeff-Com:  0.572D-07 0.344D-06-0.122D-06 0.124D-06 0.716D-05 0.197D-04
 Coeff-Com:  0.300D-04 0.812D-04 0.579D-03 0.162D-02 0.472D-02 0.428D-02
 Coeff-Com: -0.184D-01-0.537D-01-0.420D-01 0.126D+00 0.411D+00 0.566D+00
 Coeff:      0.572D-07 0.344D-06-0.122D-06 0.124D-06 0.716D-05 0.197D-04
 Coeff:      0.300D-04 0.812D-04 0.579D-03 0.162D-02 0.472D-02 0.428D-02
 Coeff:     -0.184D-01-0.537D-01-0.420D-01 0.126D+00 0.411D+00 0.566D+00
 Gap=     0.124 Goal=   None    Shift=    0.000
 RMSDP=7.35D-09 MaxDP=8.46D-07 DE= 6.18D-11 OVMax= 1.71D-06

 SCF Done:  E(RPBE1PBE) =  -4687.22864707     A.U. after   18 cycles
            NFock= 18  Conv=0.73D-08     -V/T= 2.0054
 KE= 4.661947003863D+03 PE=-3.121413727803D+04 EE= 1.178626916615D+04
 Leave Link  502 at Fri Sep 29 19:35:01 2023, MaxMem=  4026531840 cpu:            5225.4 elap:             180.6
 (Enter /sw/arch/RHEL8/EB_production/2022/software/Gaussian/g16.c02/l508.exe)
 QCSCF skips out because SCF is already converged.
 Leave Link  508 at Fri Sep 29 19:35:01 2023, MaxMem=  4026531840 cpu:               0.4 elap:               0.0
 (Enter /sw/arch/RHEL8/EB_production/2022/software/Gaussian/g16.c02/l601.exe)
 Copying SCF densities to generalized density rwf, IOpCl= 0 IROHF=0.

 **********************************************************************

            Population analysis using the SCF Density.

 **********************************************************************

 Alpha  occ. eigenvalues -- -256.36287 -77.21466 -77.17674 -30.13754 -25.98602
 Alpha  occ. eigenvalues --  -25.96722 -25.96688 -24.82414 -24.82163 -24.82131
 Alpha  occ. eigenvalues --  -24.81650 -24.81641 -24.81510 -24.81422 -24.81355
 Alpha  occ. eigenvalues --  -24.81041 -24.80923 -24.80814 -24.80454 -10.49423
 Alpha  occ. eigenvalues --  -10.49372 -10.48582 -10.48369 -10.28851 -10.28832
 Alpha  occ. eigenvalues --  -10.28606 -10.28204 -10.28061 -10.27986 -10.27665
 Alpha  occ. eigenvalues --  -10.27630 -10.27564 -10.26904 -10.26888 -10.26837
 Alpha  occ. eigenvalues --  -10.26792 -10.26272 -10.25773 -10.25682 -10.25566
 Alpha  occ. eigenvalues --  -10.25449 -10.25142 -10.25081 -10.25065 -10.24978
 Alpha  occ. eigenvalues --  -10.24853 -10.24201 -10.24130 -10.23498 -10.22990
 Alpha  occ. eigenvalues --  -10.22959 -10.22802 -10.22769 -10.22724 -10.22712
 Alpha  occ. eigenvalues --  -10.22543 -10.22443 -10.22253 -10.22156  -6.62499
 Alpha  occ. eigenvalues --   -6.58774  -4.76571  -4.76526  -4.76005  -4.72852
 Alpha  occ. eigenvalues --   -4.72801  -4.72247  -3.46933  -2.25917  -2.21184
 Alpha  occ. eigenvalues --   -2.21121  -1.35257  -1.35113  -1.34461  -1.34256
 Alpha  occ. eigenvalues --   -1.25902  -1.25867  -1.25352  -1.25207  -1.24982
 Alpha  occ. eigenvalues --   -1.24972  -1.24395  -1.24225  -0.93531  -0.93000
 Alpha  occ. eigenvalues --   -0.91851  -0.91410  -0.86267  -0.85435  -0.84345
 Alpha  occ. eigenvalues --   -0.83312  -0.83146  -0.81967  -0.80955  -0.77337
 Alpha  occ. eigenvalues --   -0.76466  -0.76005  -0.75681  -0.75667  -0.74416
 Alpha  occ. eigenvalues --   -0.73963  -0.73906  -0.73502  -0.73397  -0.73046
 Alpha  occ. eigenvalues --   -0.72465  -0.69370  -0.67544  -0.67227  -0.66985
 Alpha  occ. eigenvalues --   -0.66539  -0.65491  -0.63790  -0.63163  -0.63028
 Alpha  occ. eigenvalues --   -0.62799  -0.62788  -0.62602  -0.62352  -0.62134
 Alpha  occ. eigenvalues --   -0.62091  -0.61967  -0.61772  -0.61571  -0.60997
 Alpha  occ. eigenvalues --   -0.58984  -0.57727  -0.57486  -0.57006  -0.56829
 Alpha  occ. eigenvalues --   -0.56752  -0.56514  -0.56103  -0.55722  -0.55512
 Alpha  occ. eigenvalues --   -0.54498  -0.53538  -0.52826  -0.52403  -0.52331
 Alpha  occ. eigenvalues --   -0.51180  -0.50248  -0.50144  -0.50014  -0.49933
 Alpha  occ. eigenvalues --   -0.49740  -0.49494  -0.49345  -0.49172  -0.48991
 Alpha  occ. eigenvalues --   -0.48877  -0.47205  -0.46865  -0.46686  -0.46441
 Alpha  occ. eigenvalues --   -0.46292  -0.46085  -0.45970  -0.45919  -0.45762
 Alpha  occ. eigenvalues --   -0.45432  -0.45421  -0.45277  -0.45079  -0.44896
 Alpha  occ. eigenvalues --   -0.44675  -0.44488  -0.44275  -0.44011  -0.43924
 Alpha  occ. eigenvalues --   -0.43868  -0.43851  -0.43661  -0.43367  -0.43307
 Alpha  occ. eigenvalues --   -0.43228  -0.43138  -0.43035  -0.42998  -0.42851
 Alpha  occ. eigenvalues --   -0.42156  -0.41806  -0.41422  -0.40974  -0.40567
 Alpha  occ. eigenvalues --   -0.40356  -0.40178  -0.40070  -0.39920  -0.39690
 Alpha  occ. eigenvalues --   -0.39251  -0.39191  -0.38973  -0.38577  -0.38159
 Alpha  occ. eigenvalues --   -0.37837  -0.37404  -0.37263  -0.36824  -0.36038
 Alpha  occ. eigenvalues --   -0.35574  -0.35351  -0.34732  -0.33098  -0.32830
 Alpha  occ. eigenvalues --   -0.32325  -0.32056  -0.31583  -0.31436  -0.31263
 Alpha  occ. eigenvalues --   -0.31137  -0.29980  -0.29513  -0.29227  -0.28891
 Alpha  occ. eigenvalues --   -0.27789  -0.26752  -0.26449  -0.24627  -0.23024
 Alpha  occ. eigenvalues --   -0.22892  -0.18799
 Alpha virt. eigenvalues --   -0.06354  -0.05741  -0.04811  -0.04015  -0.01765
 Alpha virt. eigenvalues --   -0.01108   0.01636   0.03478   0.04454   0.05159
 Alpha virt. eigenvalues --    0.05355   0.05579   0.05969   0.06087   0.06427
 Alpha virt. eigenvalues --    0.07204   0.07301   0.07784   0.08249   0.08554
 Alpha virt. eigenvalues --    0.08840   0.09388   0.09451   0.09517   0.10097
 Alpha virt. eigenvalues --    0.10760   0.10781   0.10954   0.11445   0.11509
 Alpha virt. eigenvalues --    0.11950   0.12313   0.12383   0.12695   0.12999
 Alpha virt. eigenvalues --    0.13232   0.13388   0.13664   0.13819   0.14172
 Alpha virt. eigenvalues --    0.14260   0.14464   0.14602   0.15088   0.15261
 Alpha virt. eigenvalues --    0.15560   0.15768   0.15858   0.16015   0.16137
 Alpha virt. eigenvalues --    0.16593   0.16721   0.17040   0.17514   0.17858
 Alpha virt. eigenvalues --    0.18019   0.18603   0.18838   0.18956   0.19158
 Alpha virt. eigenvalues --    0.20031   0.20571   0.20767   0.20920   0.21236
 Alpha virt. eigenvalues --    0.21559   0.21974   0.22106   0.22226   0.22359
 Alpha virt. eigenvalues --    0.22510   0.22711   0.22871   0.23251   0.23426
 Alpha virt. eigenvalues --    0.23759   0.24150   0.24284   0.24662   0.24814
 Alpha virt. eigenvalues --    0.25412   0.25587   0.25806   0.26053   0.26277
 Alpha virt. eigenvalues --    0.26587   0.26680   0.27051   0.27359   0.27704
 Alpha virt. eigenvalues --    0.28317   0.28433   0.28520   0.29115   0.29215
 Alpha virt. eigenvalues --    0.29647   0.30170   0.30570   0.30912   0.31568
 Alpha virt. eigenvalues --    0.31845   0.32528   0.33005   0.33200   0.33741
 Alpha virt. eigenvalues --    0.34432   0.34777   0.35401   0.36176   0.36353
 Alpha virt. eigenvalues --    0.36717   0.37176   0.37564   0.37994   0.38442
 Alpha virt. eigenvalues --    0.38762   0.39415   0.40372   0.40507   0.41521
 Alpha virt. eigenvalues --    0.42160   0.42386   0.42535   0.43062   0.43675
 Alpha virt. eigenvalues --    0.43925   0.44059   0.44174   0.44592   0.44721
 Alpha virt. eigenvalues --    0.45034   0.45293   0.45563   0.45874   0.46228
 Alpha virt. eigenvalues --    0.46397   0.46443   0.47038   0.47297   0.47709
 Alpha virt. eigenvalues --    0.48326   0.48417   0.48655   0.49017   0.49289
 Alpha virt. eigenvalues --    0.49445   0.49827   0.49926   0.50533   0.51012
 Alpha virt. eigenvalues --    0.51334   0.51591   0.52381   0.52724   0.53117
 Alpha virt. eigenvalues --    0.53625   0.53988   0.54508   0.55364   0.55678
 Alpha virt. eigenvalues --    0.56557   0.57129   0.57592   0.58095   0.58131
 Alpha virt. eigenvalues --    0.59019   0.59271   0.59797   0.60105   0.60327
 Alpha virt. eigenvalues --    0.60658   0.61282   0.61483   0.62426   0.62742
 Alpha virt. eigenvalues --    0.63044   0.63413   0.63664   0.63979   0.64338
 Alpha virt. eigenvalues --    0.64667   0.64822   0.65025   0.65234   0.65608
 Alpha virt. eigenvalues --    0.65973   0.66183   0.66380   0.66637   0.66744
 Alpha virt. eigenvalues --    0.66864   0.67185   0.67548   0.67795   0.67889
 Alpha virt. eigenvalues --    0.68235   0.68455   0.68688   0.68827   0.69006
 Alpha virt. eigenvalues --    0.69060   0.69181   0.69513   0.69945   0.69997
 Alpha virt. eigenvalues --    0.70284   0.70441   0.70474   0.70872   0.71218
 Alpha virt. eigenvalues --    0.71405   0.71834   0.71840   0.72144   0.72362
 Alpha virt. eigenvalues --    0.72498   0.72556   0.72756   0.72842   0.73092
 Alpha virt. eigenvalues --    0.73330   0.73511   0.73815   0.74019   0.74163
 Alpha virt. eigenvalues --    0.74661   0.74842   0.74977   0.75111   0.75284
 Alpha virt. eigenvalues --    0.75476   0.75636   0.75805   0.76156   0.76377
 Alpha virt. eigenvalues --    0.76520   0.76734   0.77111   0.77290   0.77559
 Alpha virt. eigenvalues --    0.78094   0.78353   0.78806   0.78980   0.79350
 Alpha virt. eigenvalues --    0.79729   0.79967   0.80170   0.80803   0.81179
 Alpha virt. eigenvalues --    0.81573   0.81964   0.82445   0.82669   0.83209
 Alpha virt. eigenvalues --    0.83708   0.84155   0.84511   0.84686   0.84916
 Alpha virt. eigenvalues --    0.85997   0.86168   0.86282   0.86413   0.87313
 Alpha virt. eigenvalues --    0.87677   0.88218   0.88486   0.89111   0.89481
 Alpha virt. eigenvalues --    0.90108   0.90699   0.91048   0.91574   0.92502
 Alpha virt. eigenvalues --    0.92719   0.93833   0.94294   0.94754   0.95687
 Alpha virt. eigenvalues --    0.96109   0.96953   0.97165   0.97378   0.98568
 Alpha virt. eigenvalues --    0.98899   0.99075   0.99369   1.01613   1.01767
 Alpha virt. eigenvalues --    1.02330   1.03040   1.03488   1.03984   1.05503
 Alpha virt. eigenvalues --    1.05927   1.07071   1.08250   1.08699   1.09846
 Alpha virt. eigenvalues --    1.10381   1.10545   1.11367   1.11567   1.11794
 Alpha virt. eigenvalues --    1.11825   1.12422   1.12642   1.12906   1.13096
 Alpha virt. eigenvalues --    1.13576   1.13739   1.14221   1.14567   1.14815
 Alpha virt. eigenvalues --    1.15400   1.15659   1.16046   1.16425   1.16648
 Alpha virt. eigenvalues --    1.17051   1.17573   1.18932   1.19248   1.19501
 Alpha virt. eigenvalues --    1.19956   1.20789   1.21921   1.22316   1.22724
 Alpha virt. eigenvalues --    1.23353   1.24037   1.24447   1.24756   1.25183
 Alpha virt. eigenvalues --    1.25908   1.26286   1.26642   1.27466   1.27763
 Alpha virt. eigenvalues --    1.29117   1.29531   1.31237   1.31905   1.32646
 Alpha virt. eigenvalues --    1.32876   1.33202   1.34200   1.34383   1.34797
 Alpha virt. eigenvalues --    1.34858   1.35632   1.35838   1.36200   1.36661
 Alpha virt. eigenvalues --    1.36782   1.37381   1.37548   1.37956   1.38176
 Alpha virt. eigenvalues --    1.38482   1.38696   1.39665   1.39976   1.40442
 Alpha virt. eigenvalues --    1.40807   1.41172   1.41592   1.41671   1.43909
 Alpha virt. eigenvalues --    1.44228   1.45104   1.45576   1.45999   1.46257
 Alpha virt. eigenvalues --    1.46557   1.46945   1.47963   1.48655   1.49213
 Alpha virt. eigenvalues --    1.49536   1.49872   1.50253   1.50592   1.50871
 Alpha virt. eigenvalues --    1.51439   1.52200   1.52817   1.54024   1.56208
 Alpha virt. eigenvalues --    1.58500   1.59611   1.60251   1.60566   1.60904
 Alpha virt. eigenvalues --    1.62332   1.64061   1.64656   1.65511   1.65809
 Alpha virt. eigenvalues --    1.66442   1.67606   1.69107   1.69920   1.70293
 Alpha virt. eigenvalues --    1.70584   1.70819   1.72146   1.72839   1.72973
 Alpha virt. eigenvalues --    1.73484   1.73609   1.73843   1.74815   1.75041
 Alpha virt. eigenvalues --    1.75228   1.76265   1.76401   1.77864   1.77960
 Alpha virt. eigenvalues --    1.78421   1.78955   1.79572   1.80063   1.81232
 Alpha virt. eigenvalues --    1.81622   1.82503   1.84065   1.84195   1.85788
 Alpha virt. eigenvalues --    1.86496   1.86865   1.87191   1.87957   1.88874
 Alpha virt. eigenvalues --    1.89574   1.89944   1.90038   1.90140   1.90532
 Alpha virt. eigenvalues --    1.90890   1.91371   1.91488   1.91775   1.92303
 Alpha virt. eigenvalues --    1.92463   1.93284   1.93433   1.93954   1.94542
 Alpha virt. eigenvalues --    1.95028   1.95302   1.95747   1.96223   1.96324
 Alpha virt. eigenvalues --    1.96711   1.97040   1.97224   1.97511   1.97872
 Alpha virt. eigenvalues --    1.98360   1.98616   1.98987   1.99580   2.00032
 Alpha virt. eigenvalues --    2.00112   2.00377   2.00957   2.01555   2.01824
 Alpha virt. eigenvalues --    2.02023   2.03024   2.04050   2.04829   2.05931
 Alpha virt. eigenvalues --    2.07390   2.07883   2.08162   2.08594   2.08930
 Alpha virt. eigenvalues --    2.09048   2.09152   2.09699   2.09996   2.10926
 Alpha virt. eigenvalues --    2.11519   2.12578   2.13724   2.14273   2.15043
 Alpha virt. eigenvalues --    2.15143   2.15890   2.16342   2.17147   2.17492
 Alpha virt. eigenvalues --    2.19935   2.20432   2.20637   2.21219   2.21467
 Alpha virt. eigenvalues --    2.22429   2.22636   2.22894   2.23602   2.23982
 Alpha virt. eigenvalues --    2.24367   2.24940   2.25274   2.25899   2.26851
 Alpha virt. eigenvalues --    2.28207   2.28236   2.28822   2.29027   2.30143
 Alpha virt. eigenvalues --    2.30854   2.31422   2.31821   2.32013   2.33019
 Alpha virt. eigenvalues --    2.33439   2.34379   2.34836   2.35129   2.35187
 Alpha virt. eigenvalues --    2.35722   2.35788   2.36021   2.36658   2.37007
 Alpha virt. eigenvalues --    2.37146   2.37493   2.38685   2.40782   2.44407
 Alpha virt. eigenvalues --    2.46725   2.47090   2.47883   2.48421   2.48655
 Alpha virt. eigenvalues --    2.49491   2.50422   2.53780   2.54210   2.54792
 Alpha virt. eigenvalues --    2.55361   2.58358   2.58842   2.59668   2.60007
 Alpha virt. eigenvalues --    2.60920   2.61780   2.61926   2.62330   2.62854
 Alpha virt. eigenvalues --    2.63303   2.64941   2.65741   2.66794   2.68352
 Alpha virt. eigenvalues --    2.68937   2.69904   2.70192   2.71290   2.72080
 Alpha virt. eigenvalues --    2.72258   2.72643   2.73213   2.74346   2.74882
 Alpha virt. eigenvalues --    2.75370   2.76448   2.76598   2.77220   2.78254
 Alpha virt. eigenvalues --    2.79521   2.87630   2.87997   2.90584   2.92944
 Alpha virt. eigenvalues --    2.94741   2.96870   2.99013   2.99974   3.00417
 Alpha virt. eigenvalues --    3.00660   3.01297   3.02127   3.03411   3.03601
 Alpha virt. eigenvalues --    3.03934   3.04038   3.04291   3.04363   3.04580
 Alpha virt. eigenvalues --    3.04810   3.04916   3.04944   3.05425   3.05528
 Alpha virt. eigenvalues --    3.05737   3.06125   3.06271   3.06551   3.06927
 Alpha virt. eigenvalues --    3.07642   3.08070   3.08216   3.10582   3.10837
 Alpha virt. eigenvalues --    3.14780   3.15846   3.17789   3.18579   3.18766
 Alpha virt. eigenvalues --    3.19237   3.23066   3.24172   3.27127   3.28615
 Alpha virt. eigenvalues --    3.30883   3.32078   3.42981   3.43962   3.44678
 Alpha virt. eigenvalues --    3.45414   3.54607   3.55156   3.55290   3.55952
 Alpha virt. eigenvalues --    3.59763   3.60447   3.60696   3.61438   3.68605
 Alpha virt. eigenvalues --    3.69128   3.69520   3.70072   3.85129   3.85917
 Alpha virt. eigenvalues --    3.86282   3.86404   3.87810   3.88946   3.88999
 Alpha virt. eigenvalues --    3.90194
          Condensed to atoms (all electrons):
 Mulliken charges:
               1
     1  P    0.444797
     2  C   -0.119506
     3  C   -0.145589
     4  C   -0.106918
     5  C   -0.133127
     6  C   -0.108502
     7  C   -0.148877
     8  C   -0.105962
     9  C   -0.186789
    10  C   -0.084196
    11  C   -0.152744
    12  C   -0.086025
    13  C   -0.177338
    14  P    0.318785
    15  C   -0.336929
    16  C   -0.322787
    17  C   -0.180606
    18  C   -0.030455
    19  C   -0.087045
    20  C   -0.041312
    21  C   -0.098014
    22  H    0.154001
    23  H    0.135842
    24  H    0.152641
    25  H    0.129966
    26  H    0.154569
    27  H    0.140747
    28  H    0.153276
    29  H    0.138794
    30  H    0.124806
    31  Fe  -0.221829
    32  C   -0.080404
    33  C   -0.063030
    34  C   -0.099210
    35  C   -0.112637
    36  C   -0.086164
    37  H    0.118310
    38  H    0.117292
    39  H    0.134105
    40  H    0.117303
    41  H    0.123383
    42  H    0.116910
    43  H    0.115667
    44  H    0.108516
    45  H    0.120920
    46  C   -0.382221
    47  C   -0.224047
    48  C   -0.254511
    49  H    0.129155
    50  C   -0.187575
    51  H    0.137598
    52  H    0.137524
    53  C   -0.190016
    54  H    0.172727
    55  H    0.141260
    56  C   -0.216372
    57  H    0.111188
    58  H    0.100983
    59  H    0.121035
    60  H    0.102860
    61  H    0.116519
    62  H    0.104910
    63  C    0.608589
    64  F   -0.181257
    65  F   -0.165897
    66  F   -0.181130
    67  C    0.605257
    68  F   -0.179449
    69  F   -0.169098
    70  F   -0.178490
    71  C    0.620410
    72  F   -0.176235
    73  F   -0.167434
    74  F   -0.168169
    75  C    0.616229
    76  F   -0.183689
    77  F   -0.163264
    78  F   -0.179218
    79  C   -0.368589
    80  C   -0.237173
    81  C   -0.198922
    82  H    0.133668
    83  C   -0.187010
    84  H    0.124468
    85  H    0.146916
    86  C   -0.192094
    87  H    0.115703
    88  H    0.132704
    89  C   -0.217942
    90  H    0.119071
    91  H    0.107267
    92  H    0.114544
    93  H    0.103112
    94  H    0.118668
    95  H    0.102799
 Sum of Mulliken charges =  -0.00000
 Mulliken charges with hydrogens summed into heavy atoms:
               1
     1  P    0.444797
     2  C   -0.119506
     3  C    0.008412
     4  C   -0.106918
     5  C   -0.009745
     6  C   -0.108502
     7  C   -0.013034
     8  C   -0.105962
     9  C   -0.034147
    10  C   -0.084196
    11  C   -0.035834
    12  C   -0.086025
    13  C   -0.047372
    14  P    0.318785
    15  C   -0.182361
    16  C    0.110030
    17  C   -0.180606
    18  C   -0.030455
    19  C    0.021471
    20  C    0.074355
    21  C    0.026792
    31  Fe  -0.221829
    32  C    0.037906
    33  C    0.057891
    34  C    0.018082
    35  C    0.021468
    36  C    0.031139
    46  C   -0.253066
    47  C    0.051076
    48  C    0.059476
    50  C    0.024596
    53  C    0.033880
    56  C    0.005057
    63  C    0.608589
    64  F   -0.181257
    65  F   -0.165897
    66  F   -0.181130
    67  C    0.605257
    68  F   -0.179449
    69  F   -0.169098
    70  F   -0.178490
    71  C    0.620410
    72  F   -0.176235
    73  F   -0.167434
    74  F   -0.168169
    75  C    0.616229
    76  F   -0.183689
    77  F   -0.163264
    78  F   -0.179218
    79  C   -0.234921
    80  C    0.034210
    81  C    0.049485
    83  C    0.039329
    86  C    0.025562
    89  C    0.003526
 Electronic spatial extent (au):  <R**2>=          38958.7648
 Charge=             -0.0000 electrons
 Dipole moment (field-independent basis, Debye):
    X=             -1.1165    Y=             -4.2374    Z=              2.2893  Tot=              4.9440
 Quadrupole moment (field-independent basis, Debye-Ang):
   XX=           -340.5693   YY=           -351.6671   ZZ=           -347.8429
   XY=              1.2492   XZ=              6.7270   YZ=             -3.3724
 Traceless Quadrupole moment (field-independent basis, Debye-Ang):
   XX=              6.1238   YY=             -4.9740   ZZ=             -1.1498
   XY=              1.2492   XZ=              6.7270   YZ=             -3.3724
 Octapole moment (field-independent basis, Debye-Ang**2):
  XXX=           -252.0543  YYY=           -288.7878  ZZZ=            491.5793  XYY=            -93.0684
  XXY=            -77.6429  XXZ=            197.2991  XZZ=            -49.7053  YZZ=           -108.5450
  YYZ=            186.7779  XYZ=              4.5760
 Hexadecapole moment (field-independent basis, Debye-Ang**3):
 XXXX=         -15974.4216 YYYY=         -17219.1166 ZZZZ=         -15125.2140 XXXY=          -2519.2650
 XXXZ=           2392.9092 YYYX=          -2632.7460 YYYZ=           -873.0817 ZZZX=           2084.9111
 ZZZY=          -1072.6683 XXYY=          -5583.7789 XXZZ=          -5157.3149 YYZZ=          -5507.8163
 XXYZ=           -265.4003 YYXZ=            838.7413 ZZXY=           -954.8611
 N-N= 1.007869246096D+04 E-N=-3.121413730148D+04  KE= 4.661947003863D+03
 No NMR shielding tensors so no spin-rotation constants.
 Leave Link  601 at Fri Sep 29 19:35:02 2023, MaxMem=  4026531840 cpu:               4.3 elap:               0.5
 (Enter /sw/arch/RHEL8/EB_production/2022/software/Gaussian/g16.c02/l607.exe)
 ******************************Gaussian NBO Version 3.1******************************
             N A T U R A L   A T O M I C   O R B I T A L   A N D
          N A T U R A L   B O N D   O R B I T A L   A N A L Y S I S
 ******************************Gaussian NBO Version 3.1******************************
       /RESON  / : Allow strongly delocalized NBO set

 Analyzing the SCF density

 Job title: Cisa                                                            

 Storage needed:   2288310 in NPA,   3025349 in NBO (4026484625 available)


 NATURAL POPULATIONS:  Natural atomic orbital occupancies 
                                                          
   NAO  Atom  No  lang   Type(AO)    Occupancy      Energy
 ----------------------------------------------------------
     1    P    1  S      Cor( 1S)     1.99999     -76.28405
     2    P    1  S      Cor( 2S)     1.99856      -7.33076
     3    P    1  S      Val( 3S)     1.24365      -0.39754
     4    P    1  S      Ryd( 4S)     0.00477       0.72950
     5    P    1  px     Cor( 2p)     1.99984      -4.75354
     6    P    1  px     Val( 3p)     1.40989      -0.13124
     7    P    1  px     Ryd( 4p)     0.00706       0.87413
     8    P    1  py     Cor( 2p)     1.99975      -4.75598
     9    P    1  py     Val( 3p)     0.68974      -0.04665
    10    P    1  py     Ryd( 4p)     0.00408       0.79783
    11    P    1  pz     Cor( 2p)     1.99973      -4.75572
    12    P    1  pz     Val( 3p)     0.69938      -0.04465
    13    P    1  pz     Ryd( 4p)     0.00521       0.77948
    14    P    1  dxy    Ryd( 3d)     0.00573       0.97827
    15    P    1  dxz    Ryd( 3d)     0.00510       1.10973
    16    P    1  dyz    Ryd( 3d)     0.00510       1.15004
    17    P    1  dx2y2  Ryd( 3d)     0.00347       1.01903
    18    P    1  dz2    Ryd( 3d)     0.00519       1.05452
 
    19    C    2  S      Cor( 1S)     1.99886     -10.14376
    20    C    2  S      Val( 2S)     0.93726      -0.20612
    21    C    2  S      Ryd( 3S)     0.00438       0.69382
    22    C    2  px     Val( 2p)     1.12542      -0.12370
    23    C    2  px     Ryd( 3p)     0.00663       0.88520
    24    C    2  py     Val( 2p)     1.06896      -0.15075
    25    C    2  py     Ryd( 3p)     0.00341       0.76432
    26    C    2  pz     Val( 2p)     1.17160      -0.16482
    27    C    2  pz     Ryd( 3p)     0.00994       0.97301
    28    C    2  dxy    Ryd( 3d)     0.00061       2.03123
    29    C    2  dxz    Ryd( 3d)     0.00116       2.22342
    30    C    2  dyz    Ryd( 3d)     0.00059       2.08828
    31    C    2  dx2y2  Ryd( 3d)     0.00060       2.21347
    32    C    2  dz2    Ryd( 3d)     0.00082       2.09401
 
    33    C    3  S      Cor( 1S)     1.99886     -10.13950
    34    C    3  S      Val( 2S)     0.92311      -0.15942
    35    C    3  S      Ryd( 3S)     0.00193       0.62067
    36    C    3  px     Val( 2p)     1.20857      -0.10492
    37    C    3  px     Ryd( 3p)     0.00837       1.05719
    38    C    3  py     Val( 2p)     0.97344      -0.12768
    39    C    3  py     Ryd( 3p)     0.00217       0.62182
    40    C    3  pz     Val( 2p)     1.04064      -0.09272
    41    C    3  pz     Ryd( 3p)     0.00376       0.71662
    42    C    3  dxy    Ryd( 3d)     0.00050       1.96317
    43    C    3  dxz    Ryd( 3d)     0.00062       2.25271
    44    C    3  dyz    Ryd( 3d)     0.00052       2.18568
    45    C    3  dx2y2  Ryd( 3d)     0.00065       2.06364
    46    C    3  dz2    Ryd( 3d)     0.00067       2.14759
 
    47    C    4  S      Cor( 1S)     1.99873     -10.15245
    48    C    4  S      Val( 2S)     0.88283      -0.16409
    49    C    4  S      Ryd( 3S)     0.00200       0.55924
    50    C    4  px     Val( 2p)     1.11139      -0.11721
    51    C    4  px     Ryd( 3p)     0.00453       0.93913
    52    C    4  py     Val( 2p)     1.06490      -0.14865
    53    C    4  py     Ryd( 3p)     0.00374       0.75521
    54    C    4  pz     Val( 2p)     1.09467      -0.13134
    55    C    4  pz     Ryd( 3p)     0.00506       0.90216
    56    C    4  dxy    Ryd( 3d)     0.00079       2.04425
    57    C    4  dxz    Ryd( 3d)     0.00091       2.28371
    58    C    4  dyz    Ryd( 3d)     0.00064       2.11374
    59    C    4  dx2y2  Ryd( 3d)     0.00050       2.19908
    60    C    4  dz2    Ryd( 3d)     0.00055       2.14747
 
    61    C    5  S      Cor( 1S)     1.99890     -10.14812
    62    C    5  S      Val( 2S)     0.92756      -0.16481
    63    C    5  S      Ryd( 3S)     0.00179       0.58485
    64    C    5  px     Val( 2p)     1.09257      -0.09053
    65    C    5  px     Ryd( 3p)     0.00509       0.75092
    66    C    5  py     Val( 2p)     0.99617      -0.13269
    67    C    5  py     Ryd( 3p)     0.00243       0.62682
    68    C    5  pz     Val( 2p)     1.13991      -0.11434
    69    C    5  pz     Ryd( 3p)     0.00553       0.88987
    70    C    5  dxy    Ryd( 3d)     0.00062       2.04823
    71    C    5  dxz    Ryd( 3d)     0.00071       2.22361
    72    C    5  dyz    Ryd( 3d)     0.00053       2.05844
    73    C    5  dx2y2  Ryd( 3d)     0.00057       2.18852
    74    C    5  dz2    Ryd( 3d)     0.00058       2.04836
 
    75    C    6  S      Cor( 1S)     1.99873     -10.15292
    76    C    6  S      Val( 2S)     0.88376      -0.16630
    77    C    6  S      Ryd( 3S)     0.00235       0.55483
    78    C    6  px     Val( 2p)     1.09798      -0.14123
    79    C    6  px     Ryd( 3p)     0.00641       1.03108
    80    C    6  py     Val( 2p)     1.06562      -0.14068
    81    C    6  py     Ryd( 3p)     0.00318       0.72588
    82    C    6  pz     Val( 2p)     1.10275      -0.11446
    83    C    6  pz     Ryd( 3p)     0.00420       0.83966
    84    C    6  dxy    Ryd( 3d)     0.00051       2.05104
    85    C    6  dxz    Ryd( 3d)     0.00061       2.30657
    86    C    6  dyz    Ryd( 3d)     0.00061       2.16683
    87    C    6  dx2y2  Ryd( 3d)     0.00085       2.10430
    88    C    6  dz2    Ryd( 3d)     0.00081       2.14533
 
    89    C    7  S      Cor( 1S)     1.99888     -10.14001
    90    C    7  S      Val( 2S)     0.92549      -0.16239
    91    C    7  S      Ryd( 3S)     0.00303       0.68985
    92    C    7  px     Val( 2p)     1.11671      -0.09493
    93    C    7  px     Ryd( 3p)     0.00585       0.80777
    94    C    7  py     Val( 2p)     1.00491      -0.13351
    95    C    7  py     Ryd( 3p)     0.00336       0.76296
    96    C    7  pz     Val( 2p)     1.10852      -0.10424
    97    C    7  pz     Ryd( 3p)     0.00595       0.83658
    98    C    7  dxy    Ryd( 3d)     0.00061       2.01651
    99    C    7  dxz    Ryd( 3d)     0.00073       2.27416
   100    C    7  dyz    Ryd( 3d)     0.00058       2.08157
   101    C    7  dx2y2  Ryd( 3d)     0.00049       2.18641
   102    C    7  dz2    Ryd( 3d)     0.00062       2.10617
 
   103    C    8  S      Cor( 1S)     1.99892     -10.14010
   104    C    8  S      Val( 2S)     0.93785      -0.19834
   105    C    8  S      Ryd( 3S)     0.00379       0.63348
   106    C    8  px     Val( 2p)     1.04892      -0.14628
   107    C    8  px     Ryd( 3p)     0.00251       0.70419
   108    C    8  py     Val( 2p)     1.20973      -0.16677
   109    C    8  py     Ryd( 3p)     0.01021       1.04075
   110    C    8  pz     Val( 2p)     1.11112      -0.10807
   111    C    8  pz     Ryd( 3p)     0.00449       0.88381
   112    C    8  dxy    Ryd( 3d)     0.00108       1.97903
   113    C    8  dxz    Ryd( 3d)     0.00066       2.03506
   114    C    8  dyz    Ryd( 3d)     0.00082       2.35220
   115    C    8  dx2y2  Ryd( 3d)     0.00070       2.02868
   116    C    8  dz2    Ryd( 3d)     0.00077       2.26391
 
   117    C    9  S      Cor( 1S)     1.99889     -10.12783
   118    C    9  S      Val( 2S)     0.91386      -0.14568
   119    C    9  S      Ryd( 3S)     0.00231       0.62781
   120    C    9  px     Val( 2p)     0.99797      -0.12680
   121    C    9  px     Ryd( 3p)     0.00286       0.68645
   122    C    9  py     Val( 2p)     1.11751      -0.08315
   123    C    9  py     Ryd( 3p)     0.00511       0.87433
   124    C    9  pz     Val( 2p)     1.13430      -0.08614
   125    C    9  pz     Ryd( 3p)     0.00598       0.91272
   126    C    9  dxy    Ryd( 3d)     0.00058       1.97884
   127    C    9  dxz    Ryd( 3d)     0.00053       1.96933
   128    C    9  dyz    Ryd( 3d)     0.00073       2.30844
   129    C    9  dx2y2  Ryd( 3d)     0.00051       2.14743
   130    C    9  dz2    Ryd( 3d)     0.00060       2.27583
 
   131    C   10  S      Cor( 1S)     1.99874     -10.14082
   132    C   10  S      Val( 2S)     0.88165      -0.15183
   133    C   10  S      Ryd( 3S)     0.00210       0.54328
   134    C   10  px     Val( 2p)     1.05568      -0.13398
   135    C   10  px     Ryd( 3p)     0.00292       0.69542
   136    C   10  py     Val( 2p)     1.11111      -0.09682
   137    C   10  py     Ryd( 3p)     0.00443       0.88935
   138    C   10  pz     Val( 2p)     1.09600      -0.12665
   139    C   10  pz     Ryd( 3p)     0.00619       1.03378
   140    C   10  dxy    Ryd( 3d)     0.00070       2.03055
   141    C   10  dxz    Ryd( 3d)     0.00050       2.01659
   142    C   10  dyz    Ryd( 3d)     0.00075       2.36220
   143    C   10  dx2y2  Ryd( 3d)     0.00062       2.18941
   144    C   10  dz2    Ryd( 3d)     0.00089       2.23795
 
   145    C   11  S      Cor( 1S)     1.99890     -10.13099
   146    C   11  S      Val( 2S)     0.92468      -0.14831
   147    C   11  S      Ryd( 3S)     0.00184       0.57110
   148    C   11  px     Val( 2p)     0.99176      -0.12529
   149    C   11  px     Ryd( 3p)     0.00205       0.58939
   150    C   11  py     Val( 2p)     1.19321      -0.09532
   151    C   11  py     Ryd( 3p)     0.00661       0.99875
   152    C   11  pz     Val( 2p)     1.06891      -0.07479
   153    C   11  pz     Ryd( 3p)     0.00460       0.70561
   154    C   11  dxy    Ryd( 3d)     0.00048       1.92568
   155    C   11  dxz    Ryd( 3d)     0.00059       2.03946
   156    C   11  dyz    Ryd( 3d)     0.00068       2.32351
   157    C   11  dx2y2  Ryd( 3d)     0.00062       2.03917
   158    C   11  dz2    Ryd( 3d)     0.00062       2.30539
 
   159    C   12  S      Cor( 1S)     1.99875     -10.14091
   160    C   12  S      Val( 2S)     0.88288      -0.15261
   161    C   12  S      Ryd( 3S)     0.00217       0.54556
   162    C   12  px     Val( 2p)     1.05227      -0.13742
   163    C   12  px     Ryd( 3p)     0.00340       0.69779
   164    C   12  py     Val( 2p)     1.10343      -0.10760
   165    C   12  py     Ryd( 3p)     0.00521       0.93514
   166    C   12  pz     Val( 2p)     1.10347      -0.11151
   167    C   12  pz     Ryd( 3p)     0.00501       0.96855
   168    C   12  dxy    Ryd( 3d)     0.00068       1.99598
   169    C   12  dxz    Ryd( 3d)     0.00070       1.99660
   170    C   12  dyz    Ryd( 3d)     0.00102       2.34575
   171    C   12  dx2y2  Ryd( 3d)     0.00048       2.17423
   172    C   12  dz2    Ryd( 3d)     0.00057       2.31706
 
   173    C   13  S      Cor( 1S)     1.99889     -10.12892
   174    C   13  S      Val( 2S)     0.91596      -0.14765
   175    C   13  S      Ryd( 3S)     0.00217       0.59523
   176    C   13  px     Val( 2p)     0.98782      -0.12721
   177    C   13  px     Ryd( 3p)     0.00197       0.61886
   178    C   13  py     Val( 2p)     1.07839      -0.07713
   179    C   13  py     Ryd( 3p)     0.00414       0.77737
   180    C   13  pz     Val( 2p)     1.19089      -0.09599
   181    C   13  pz     Ryd( 3p)     0.00737       1.00225
   182    C   13  dxy    Ryd( 3d)     0.00054       2.03360
   183    C   13  dxz    Ryd( 3d)     0.00047       1.92248
   184    C   13  dyz    Ryd( 3d)     0.00065       2.32180
   185    C   13  dx2y2  Ryd( 3d)     0.00056       2.19900
   186    C   13  dz2    Ryd( 3d)     0.00073       2.16316
 
   187    P   14  S      Cor( 1S)     1.99999     -76.45058
   188    P   14  S      Cor( 2S)     1.99891      -7.10385
   189    P   14  S      Val( 3S)     1.28798      -0.39920
[...]
                                                    288(r),398(r),818(r),485(r)
                                                    181(r),414(r),800(r),808(r)
                                                    463(r),394(r),289(r),437(r)
   190. LP*(   8)Fe  31                  0.20370     0.27372  193(r),192(r),178(r),181(r)
                                                    767(r),179(r),195(r),188(g)
                                                    450(r),441(r),765(r),408(r)
                                                    180(r),821(r),811(r),244(r)
                                                    488(r),468(r),796(r),490(r)
                                                    482(r),817(r),404(r),484(r)
                                                    801(r),362(r),426(r),380(r)
                                                    377(r),389(r),815(r),822(r)
                                                    807(r),465(r),464(r),814(r)
                                                    385(r),816(r),453(r),806(r)
                                                    809(r),444(r),798(r),819(r)
                                                    797(r),448(r),800(r),439(r)
                                                    810(r),411(r),394(r),454(r)
   191. LP*(   9)Fe  31                  0.12953     0.21812  796(r),432(g),179(r),178(r)
                                                    180(r),182(r),181(r),195(r)
                                                    196(r),194(r),192(r),193(r)
                                                    188(g),765(r),767(r),830(r)
                                                    801(r),385(r),798(r),394(r)
                                                    802(r),406(r),421(r),408(r)
                                                    472(r),477(r),827(r),481(r)
                                                    412(r),415(r),403(r),468(r)
                                                    397(r),463(r),379(r),811(r)
                                                    453(r),797(r),441(r),812(r)
   431. RY*(   1)Fe  31                  0.00453     0.58233   
   432. RY*(   2)Fe  31                  0.00064     0.87384   
   433. RY*(   3)Fe  31                  0.00022     1.40531   
   434. RY*(   4)Fe  31                  0.00015     1.40959   
   435. RY*(   5)Fe  31                  0.00005     1.29812   
   436. RY*(   6)Fe  31                  0.00003     1.31660   
       -------------------------------
              Total Lewis   23.52215  ( 90.5319%)
        Valence non-Lewis    2.45441  (  9.4465%)
        Rydberg non-Lewis    0.00561  (  0.0216%)
       -------------------------------
            Total unit  2   25.98217  (100.0000%)
           Charge unit  2    0.01783
 
 Molecular unit  3  (C5H5)
    49. BD (   1) C  32 - C  33          1.96811    -0.65392  192(g),193(g),188(r),190(r)
                                                    187(r),822(v),819(v),191(r)
                                                    474(v),455(v),814(g),816(g)
                                                    815(g),817(g),186(r),179(r)
                                                    182(r),178(r),181(r),180(r)
                                                    379(r)
    50. BD (   1) C  32 - C  36          1.96792    -0.65367  192(g),196(g),188(r),821(v)
                                                    817(v),189(r),191(r),187(r)
                                                    465(v),447(v),190(r),186(r)
                                                    820(g),813(g),822(g),815(g)
                                                    178(r),179(r),181(r),182(r)
                                                    180(r)
    51. BD (   1) C  32 - H  37          1.98082    -0.54387  190(r),820(v),816(v),192(g)
                                                    188(r),189(r),814(g),813(g)
                                                    191(r),431(r),187(r)
    52. BD (   1) C  33 - C  34          1.96754    -0.65329  193(g),194(g),188(r),186(r)
                                                    189(r),821(v),815(v),190(r)
                                                    191(r),464(v),818(g),813(g)
                                                    438(v),819(g),817(g),437(v)
                                                    178(r),180(r),182(r),181(r)
                                                    179(r),387(r),187(r),289(r)
    53. BD (   1) C  33 - H  45          1.98059    -0.54277  190(r),818(v),814(v),193(g)
                                                    188(r),816(g),813(g),189(r)
                                                    191(r),457(v),431(r)
    54. BD (   1) C  34 - C  35          1.96653    -0.65047  188(r),194(g),195(g),187(r)
                                                    822(v),817(v),191(r),189(r)
                                                    474(v),820(g),816(g),821(g)
                                                    819(g),446(v),447(v),473(v)
                                                    289(r),190(r),178(r),179(r)
                                                    181(r),182(r),180(r),186(r)
                                                    290(r)
    55. BD (   1) C  34 - H  38          1.97989    -0.54276  189(r),820(v),813(v),188(r)
                                                    194(g),818(g),816(g),191(r)
                                                    431(r),289(r),779(r),423(r)
                                                    287(r)
    56. BD (   1) C  35 - C  36          1.96797    -0.65468  188(r),196(g),195(g),815(v)
                                                    186(r),819(v),191(r),456(v)
                                                    438(v),818(g),814(g),821(g)
                                                    822(g),189(r),187(r),190(r)
                                                    178(r),179(r),182(r),180(r)
                                                    181(r)
    57. BD (   1) C  35 - H  39          1.98065    -0.54350  188(r),814(v),816(v),195(g)
                                                    190(r),820(g),191(r),818(g)
                                                    457(v),431(r),244(r),187(r)
    58. BD (   1) C  36 - H  40          1.98044    -0.54474  818(v),189(r),813(v),188(r)
                                                    196(g),191(r),820(g),814(g)
                                                    802(r),427(r),431(r)
   143. CR (   1) C  32                  1.99866   -10.11639  188(r),192(g),190(r),191(r)
                                                    474(v),447(v),193(v),189(r)
                                                    196(v),822(v),817(v),482(v)
                                                    820(v),816(v),187(r),432(r)
   144. CR (   1) C  33                  1.99867   -10.11563  188(r),190(r),193(g),438(v)
                                                    191(r),456(v),192(v),189(r)
                                                    194(v),819(v),815(v),490(v)
                                                    818(v),814(v),448(g),186(r)
                                                    432(r)
   145. CR (   1) C  34                  1.99869   -10.11337  188(r),194(g),189(r),191(r)
                                                    447(v),465(v),193(v),195(v)
                                                    483(v),821(v),817(v),813(v)
                                                    820(v),187(r),186(r),432(r)
   146. CR (   1) C  35                  1.99870   -10.11429  188(r),195(g),191(r),474(v)
                                                    190(r),196(v),194(v),484(v)
                                                    819(v),822(v),456(v),814(v)
                                                    816(v),455(v),187(r),432(r)
   147. CR (   1) C  36                  1.99868   -10.11569  188(r),196(g),189(r),191(r)
                                                    438(v),192(v),195(v),821(v)
                                                    815(v),465(v),485(v),464(v)
                                                    818(v),813(v),186(r),432(r)
   192. LP*(   1) C  32                  0.97823    -0.13577  196(v),193(v),187(r),180(r)
                                                    195(r),181(r),194(r),182(r)
                                                    179(r),190(r),188(r),191(r)
                                                    186(r),813(g),814(g),189(r)
                                                    178(r),439(g),822(v),817(v)
                                                    437(g),473(v),476(v),436(r)
                                                    433(r),445(g),449(v),447(v)
                                                    389(r),432(r),387(r),379(r)
                                                    395(r),382(r),386(r),434(r)
   193. LP*(   1) C  33                  0.97524    -0.13464  194(v),192(v),186(r),195(r)
                                                    181(r),196(r),187(r),182(r)
                                                    180(r),190(r),188(r),179(r)
                                                    813(g),816(g),191(r),189(r)
                                                    178(r),448(g),819(v),815(v)
                                                    446(g),455(v),437(v),440(v)
                                                    434(r),458(v),436(r),433(r)
                                                    432(r),404(r),387(r)
   194. LP (   1) C  34                  0.98637    -0.13465  193(v),195(v),187(r),186(r)
                                                    192(r),196(r),182(r),181(r)
                                                    180(r),188(r),189(r),179(r)
                                                    178(r),191(r),816(g),818(g)
                                                    455(g),821(v),817(v),457(g)
                                                    446(v),464(v),449(v),467(v)
                                                    435(r),433(r),434(r),779(r)
                                                    432(r),289(r),767(r),408(r)
                                                    379(r),436(r)
   195. LP (   1) C  35                  0.98464    -0.13518  194(v),196(v),187(r),193(r)
                                                    192(r),186(r),179(r),180(r)
                                                    181(r),182(r),178(r),188(r)
                                                    191(r),190(r),820(g),818(g)
                                                    819(v),822(v),466(g),464(g)
                                                    473(v),458(v),476(v),456(v)
                                                    465(g),468(g),435(r),433(r)
                                                    189(r),431(r),244(r),769(r)
                                                    434(r),432(r),426(r),409(r)
                                                    767(r)
   196. LP (   1) C  36                  0.98524    -0.13617  192(v),195(v),186(r),180(r)
                                                    193(r),181(r),194(r),179(r)
                                                    187(r),188(r),182(r),189(r)
                                                    191(r),178(r),820(g),814(g)
                                                    473(g),821(v),815(v),475(g)
                                                    465(v),434(r),467(v),440(v)
                                                    437(v),436(r),435(r),427(r)
                                                    432(r),802(r),190(r),379(r)
                                                    431(r),415(r)
   437. RY*(   1) C  32                  0.00377     0.94220   
   438. RY*(   2) C  32                  0.00364     0.63728   
   439. RY*(   3) C  32                  0.00258     1.09382   
   440. RY*(   4) C  32                  0.00108     1.88922   
   441. RY*(   5) C  32                  0.00092     0.69904   
   442. RY*(   6) C  32                  0.00021     1.94960   
   443. RY*(   7) C  32                  0.00010     2.33069   
   444. RY*(   8) C  32                  0.00006     2.11295   
   445. RY*(   9) C  32                  0.00005     2.09507   
   446. RY*(   1) C  33                  0.00375     0.89094   
   447. RY*(   2) C  33                  0.00364     0.65798   
   448. RY*(   3) C  33                  0.00268     1.13672   
   449. RY*(   4) C  33                  0.00109     1.86940   
   450. RY*(   5) C  33                  0.00091     0.71650   
   451. RY*(   6) C  33                  0.00020     1.95699   
   452. RY*(   7) C  33                  0.00010     2.33197   
   453. RY*(   8) C  33                  0.00005     2.14089   
   454. RY*(   9) C  33                  0.00006     2.05997   
   455. RY*(   1) C  34                  0.00389     0.76500   
   456. RY*(   2) C  34                  0.00383     0.78409   
   457. RY*(   3) C  34                  0.00274     1.27357   
   458. RY*(   4) C  34                  0.00107     1.83157   
   459. RY*(   5) C  34                  0.00099     0.76388   
   460. RY*(   6) C  34                  0.00023     1.98055   
   461. RY*(   7) C  34                  0.00011     2.36312   
   462. RY*(   8) C  34                  0.00007     2.06162   
   463. RY*(   9) C  34                  0.00005     2.15544   
   464. RY*(   1) C  35                  0.00416     0.87910   
   465. RY*(   2) C  35                  0.00389     0.73928   
   466. RY*(   3) C  35                  0.00260     1.25725   
   467. RY*(   4) C  35                  0.00109     1.86007   
   468. RY*(   5) C  35                  0.00098     0.71993   
   469. RY*(   6) C  35                  0.00021     1.98830   
   470. RY*(   7) C  35                  0.00011     2.08276   
   471. RY*(   8) C  35                  0.00011     2.34148   
   472. RY*(   9) C  35                  0.00005     2.16762   
   473. RY*(   1) C  36                  0.00406     0.89496   
   474. RY*(   2) C  36                  0.00369     0.64259   
   475. RY*(   3) C  36                  0.00259     1.21827   
   476. RY*(   4) C  36                  0.00109     1.88612   
   477. RY*(   5) C  36                  0.00094     0.68918   
   478. RY*(   6) C  36                  0.00020     1.97279   
   479. RY*(   7) C  36                  0.00010     2.33955   
   480. RY*(   8) C  36                  0.00008     2.06966   
   481. RY*(   9) C  36                  0.00005     2.14599   
   482. RY*(   1) H  37                  0.00117     0.34477   
   483. RY*(   1) H  38                  0.00253     0.43990   
   484. RY*(   1) H  39                  0.00352     0.52811   
   485. RY*(   1) H  40                  0.00147     0.37723   
   490. RY*(   1) H  45                  0.00114     0.34903   
   813. BD*(   1) C  32 - C  33          0.03199     0.50466   
   814. BD*(   1) C  32 - C  36          0.03160     0.50396   
   815. BD*(   1) C  32 - H  37          0.01595     0.48308   
   816. BD*(   1) C  33 - C  34          0.03155     0.50832   
   817. BD*(   1) C  33 - H  45          0.01590     0.48448   
   818. BD*(   1) C  34 - C  35          0.03200     0.50451   
   819. BD*(   1) C  34 - H  38          0.01834     0.49679   
   820. BD*(   1) C  35 - C  36          0.03210     0.50917   
   821. BD*(   1) C  35 - H  39          0.01676     0.49947   
   822. BD*(   1) C  36 - H  40          0.01667     0.48423   
       -------------------------------
              Total Lewis   32.69011  ( 93.5069%)
        Valence non-Lewis    2.19634  (  6.2824%)
        Rydberg non-Lewis    0.07366  (  0.2107%)
       -------------------------------
            Total unit  3   34.96011  (100.0000%)
           Charge unit  3    0.03989
 Leave Link  607 at Fri Sep 29 19:35:06 2023, MaxMem=  4026531840 cpu:              31.5 elap:               4.6
 (Enter /sw/arch/RHEL8/EB_production/2022/software/Gaussian/g16.c02/l9999.exe)
 Unable to Open any file for archive entry.
 1\1\GINC-TCN551\SP\RPBE1PBE\def2SVPP\C40H40F12Fe1P2\ADARSH\29-Sep-2023
 \0\\#p pop=nbo pbe1pbe/def2svpp empiricaldispersion=gd3bj integral=gri
 d=ultrafinegrid scf=(xqc,maxconventionalcycles=90) nosymm\\Cisa\\0,1\P
 ,0,0.22257,0.92345,-0.67407\C,0,1.12548,0.44499,-2.18189\C,0,0.4,-0.23
 449,-3.15916\C,0,1.03578,-0.71675,-4.30177\C,0,2.39747,-0.50138,-4.488
 85\C,0,3.11969,0.20122,-3.5201\C,0,2.49379,0.66449,-2.36586\C,0,0.8386
 3,2.57292,-0.20597\C,0,0.59399,3.0274,1.09459\C,0,0.85533,4.35025,1.43
 851\C,0,1.36124,5.2421,0.49422\C,0,1.59692,4.793,-0.80268\C,0,1.33738,
 3.46859,-1.15575\P,0,-2.51114,-0.8668,0.05047\C,0,-1.05865,-2.03766,0.
 21491\C,0,-1.36667,-3.44899,0.70703\C,0,0.73809,-0.16812,0.65901\C,0,0
 .03376,-1.37866,1.01078\C,0,0.57301,-1.8302,2.25231\C,0,1.59908,-0.932
 19,2.66098\C,0,1.71487,0.08788,1.68102\H,0,-0.67691,-0.38333,-3.01555\
 H,0,3.07845,1.19201,-1.60767\H,0,0.18558,2.34886,1.84797\H,0,1.52637,3
 .14657,-2.18321\H,0,-0.71346,-2.11464,-0.83249\H,0,-0.42707,-4.02308,0
 .76444\H,0,-2.03596,-3.98018,0.01557\H,0,-1.82924,-3.4591,1.70404\H,0,
 2.41674,0.92111,1.69941\Fe,0,2.03384,-1.73207,0.82648\C,0,3.10395,-3.4
 6638,1.01087\C,0,3.98303,-2.35077,0.91429\C,0,3.73189,-1.69593,-0.3241
 3\C,0,2.69596,-2.41036,-0.99584\C,0,2.31179,-3.50465,-0.17276\H,0,3.03
 375,-4.15566,1.85266\H,0,4.25124,-0.81271,-0.69206\H,0,2.26759,-2.1639
 6,-1.96734\H,0,1.54183,-4.24013,-0.40642\H,0,2.89836,-0.87938,-5.38257
 \H,0,1.56779,6.27864,0.76692\H,0,2.21986,-1.03466,3.55084\H,0,0.28564,
 -2.73882,2.77951\H,0,4.703,-2.03572,1.66986\C,0,-3.10096,-0.32787,1.72
 668\C,0,-3.08347,-1.36377,2.85477\C,0,-2.36206,0.94548,2.16685\H,0,-4.
 15628,-0.04876,1.5269\C,0,-3.6857,-0.78154,4.1334\H,0,-2.03628,-1.6529
 ,3.05337\H,0,-3.62538,-2.27888,2.56739\C,0,-2.95144,1.52504,3.44836\H,
 0,-1.29822,0.69418,2.33477\H,0,-2.39147,1.69623,1.35119\C,0,-2.96505,0
 .4904,4.56841\H,0,-3.64973,-1.53941,4.935\H,0,-4.75659,-0.55959,3.9619
 2\H,0,-2.37727,2.41966,3.74641\H,0,-3.98494,1.8677,3.24843\H,0,-3.4385
 ,0.90966,5.4726\H,0,-1.92272,0.24171,4.84658\C,0,0.54451,4.78879,2.847
 94\F,0,-0.76835,4.67619,3.09162\F,0,0.89434,6.04958,3.06768\F,0,1.1738
 7,4.01761,3.73576\C,0,2.07883,5.74196,-1.87265\F,0,3.00949,5.16679,-2.
 63517\F,0,2.58996,6.8526,-1.35442\F,0,1.06782,6.08979,-2.67482\C,0,4.5
 8329,0.5002,-3.73986\F,0,5.247,0.51665,-2.57799\F,0,4.74192,1.69622,-4
 .30393\F,0,5.15315,-0.40473,-4.52791\C,0,0.19753,-1.46281,-5.3076\F,0,
 -0.42302,-2.49618,-4.72418\F,0,0.91892,-1.92927,-6.31717\F,0,-0.75697,
 -0.67019,-5.80671\C,0,-3.8902,-1.78749,-0.7725\C,0,-3.39553,-2.4228,-2
 .07919\C,0,-4.72954,-2.76419,0.05744\H,0,-4.57236,-0.9595,-1.04963\C,0
 ,-4.55967,-2.97481,-2.89722\H,0,-2.69809,-3.24917,-1.85165\H,0,-2.8177
 8,-1.68876,-2.67167\C,0,-5.88326,-3.31585,-0.78102\H,0,-4.10766,-3.599
 84,0.4202\H,0,-5.1335,-2.2565,0.9494\C,0,-5.39328,-3.95411,-2.07683\H,
 0,-4.17497,-3.45898,-3.81121\H,0,-5.20151,-2.13647,-3.23232\H,0,-6.457
 59,-4.04461,-0.18365\H,0,-6.5814,-2.49081,-1.02118\H,0,-6.24921,-4.318
 ,-2.67037\H,0,-4.77909,-4.84385,-1.83829\\Version=ES64L-G16RevC.02\HF=
 -4687.2286471\RMSD=7.347e-09\Dipole=-0.4392655,-1.6671184,0.9006839\Qu
 adrupole=4.5528931,-3.6980277,-0.8548655,0.9287845,5.0013251,-2.507313
 4\PG=C01 [X(C40H40F12Fe1P2)]\\@
 The archive entry for this job was punched.


 A successful marriage requires falling in love
 many times, always with the same person.
                           -- Mignon McLaughlin
 Job cpu time:       0 days  1 hours 29 minutes 58.8 seconds.
 Elapsed time:       0 days  0 hours  3 minutes 12.9 seconds.
 File lengths (MBytes):  RWF=    624 Int=      0 D2E=      0 Chk=     48 Scr=     32
 Normal termination of Gaussian 16 at Fri Sep 29 19:35:07 2023.
