 Entering Gaussian System, Link 0=g16
 Input=free_ligand_L10_SP.inp
 Output=free_ligand_L10_SP.log
 Initial command:
 /sw/arch/RHEL8/EB_production/2022/software/Gaussian/g16.c02/l1.exe "/scratch-local/adarsh.3962502/Gau-1900621.inp" -scrdir="/scratch-local/adarsh.3962502/"
 Entering Link 1 = /sw/arch/RHEL8/EB_production/2022/software/Gaussian/g16.c02/l1.exe PID=   1900626.
  
 Copyright (c) 1988-2021, Gaussian, Inc.  All Rights Reserved.
  
 This is part of the Gaussian(R) 16 program.  It is based on
 the Gaussian(R) 09 system (copyright 2009, Gaussian, Inc.),
 the Gaussian(R) 03 system (copyright 2003, Gaussian, Inc.),
 the Gaussian(R) 98 system (copyright 1998, Gaussian, Inc.),
 the Gaussian(R) 94 system (copyright 1995, Gaussian, Inc.),
 the Gaussian 92(TM) system (copyright 1992, Gaussian, Inc.),
 the Gaussian 90(TM) system (copyright 1990, Gaussian, Inc.),
 the Gaussian 88(TM) system (copyright 1988, Gaussian, Inc.),
 the Gaussian 86(TM) system (copyright 1986, Carnegie Mellon
 University), and the Gaussian 82(TM) system (copyright 1983,
 Carnegie Mellon University). Gaussian is a federally registered
 trademark of Gaussian, Inc.
  
 This software contains proprietary and confidential information,
 including trade secrets, belonging to Gaussian, Inc.
  
 This software is provided under written license and may be
 used, copied, transmitted, or stored only in accord with that
 written license.
  
 The following legend is applicable only to US Government
 contracts under FAR:
  
                    RESTRICTED RIGHTS LEGEND
  
 Use, reproduction and disclosure by the US Government is
 subject to restrictions as set forth in subparagraphs (a)
 and (c) of the Commercial Computer Software - Restricted
 Rights clause in FAR 52.227-19.
  
 Gaussian, Inc.
 340 Quinnipiac St., Bldg. 40, Wallingford CT 06492
  
  
 ---------------------------------------------------------------
 Warning -- This program may not be used in any manner that
 competes with the business of Gaussian, Inc. or will provide
 assistance to any competitor of Gaussian, Inc.  The licensee
 of this program is prohibited from giving any competitor of
 Gaussian, Inc. access to this program.  By using this program,
 the user acknowledges that Gaussian, Inc. is engaged in the
 business of creating and licensing software in the field of
 computational chemistry and represents and warrants to the
 licensee that it is not a competitor of Gaussian, Inc. and that
 it will not use this program in any manner prohibited above.
 ---------------------------------------------------------------
  

 Cite this work as:
 Gaussian 16, Revision C.02,
 M. J. Frisch, G. W. Trucks, H. B. Schlegel, G. E. Scuseria, 
 M. A. Robb, J. R. Cheeseman, G. Scalmani, V. Barone, 
 G. A. Petersson, H. Nakatsuji, X. Li, M. Caricato, A. V. Marenich, 
 J. Bloino, B. G. Janesko, R. Gomperts, B. Mennucci, H. P. Hratchian, 
 J. V. Ortiz, A. F. Izmaylov, J. L. Sonnenberg, D. Williams-Young, 
 F. Ding, F. Lipparini, F. Egidi, J. Goings, B. Peng, A. Petrone, 
 T. Henderson, D. Ranasinghe, V. G. Zakrzewski, J. Gao, N. Rega, 
 G. Zheng, W. Liang, M. Hada, M. Ehara, K. Toyota, R. Fukuda, 
 J. Hasegawa, M. Ishida, T. Nakajima, Y. Honda, O. Kitao, H. Nakai, 
 T. Vreven, K. Throssell, J. A. Montgomery, Jr., J. E. Peralta, 
 F. Ogliaro, M. J. Bearpark, J. J. Heyd, E. N. Brothers, K. N. Kudin, 
 V. N. Staroverov, T. A. Keith, R. Kobayashi, J. Normand, 
 K. Raghavachari, A. P. Rendell, J. C. Burant, S. S. Iyengar, 
 J. Tomasi, M. Cossi, J. M. Millam, M. Klene, C. Adamo, R. Cammi, 
 J. W. Ochterski, R. L. Martin, K. Morokuma, O. Farkas, 
 J. B. Foresman, and D. J. Fox, Gaussian, Inc., Wallingford CT, 2019.
 
 ******************************************
 Gaussian 16:  ES64L-G16RevC.02  7-Dec-2021
                29-Sep-2023 
 ******************************************
 %nprocshared=32
 Will use up to   32 processors via shared memory.
 %mem=30GB
 %chk=free_ligand_L10.chk
 ----------------------------------------------------------------------
 #p pop=nbo pbe1pbe/def2svpp empiricaldispersion=gd3bj integral=grid=ul
 trafinegrid scf=(xqc,maxconventionalcycles=90) nosymm
 ----------------------------------------------------------------------
 1/38=1,172=1/1;
 2/12=2,15=1,17=6,18=5,40=1/2;
 3/5=43,7=202,11=2,25=1,30=1,74=-13,75=-5,124=41/1,2,3;
 4//1;
 5/5=2,8=3,13=1,38=5,85=90/2,8;
 6/7=2,8=2,9=2,10=2,28=1,40=1/1,7;
 99/5=1,9=1/99;
 Leave Link    1 at Fri Sep 29 19:32:14 2023, MaxMem=  4026531840 cpu:               0.1 elap:               1.1
 (Enter /sw/arch/RHEL8/EB_production/2022/software/Gaussian/g16.c02/l101.exe)
 ----
 Cisa
 ----
 Symbolic Z-matrix:
 Charge =  0 Multiplicity = 1
 C                    -3.56521  -0.90745  -1.31149 
 C                    -4.29973  -1.40144  -0.19386 
 C                    -5.13082  -0.34992   0.28586 
 C                    -4.90845   0.79483  -0.5309 
 C                    -3.94457   0.44643  -1.52035 
 H                    -2.8426   -1.46576  -1.90554 
 H                    -4.23933  -2.40414   0.22661 
 H                    -5.79798  -0.40241   1.14651 
 H                    -5.37811   1.77094  -0.4071 
 H                    -3.56357   1.10055  -2.30446 
 Fe                   -3.16694   0.21016   0.37211 
 C                    -2.38651   1.9062    1.19459 
 C                    -1.36418   1.17252   0.51745 
 C                    -1.3028   -0.12778   1.13385 
 C                    -2.29501  -0.17827   2.16978 
 C                    -2.94974   1.08062   2.20815 
 H                    -2.72048   2.9141    0.95322 
 H                    -2.5033   -1.03411   2.8108 
 H                    -3.77389   1.35266   2.86739 
 C                    -0.5232    1.65914  -0.63197 
 H                    -0.50575   0.8503   -1.38434 
 P                     0.02362  -1.29741   0.81223 
 C                    -1.17989   2.87586  -1.28451 
 H                    -0.7579    3.10043  -2.27236 
 H                    -2.24842   2.65212  -1.43094 
 H                    -1.11284   3.78291  -0.66768 
 P                     1.32364   1.74589  -0.16621 
 C                     2.14502   2.6418   -1.63391 
 C                     1.474     2.76321   1.43396 
 C                     0.53759   3.97114   1.48699 
 H                    -0.51969   3.66838   1.48257 
 H                     0.71641   4.51369   2.43352 
 H                     0.71009   4.68207   0.66488 
 C                     2.91613   3.2393    1.62649 
 H                     3.00309   3.68406   2.63413 
 H                     3.63988   2.40978   1.5717 
 H                     3.20677   4.01787   0.90496 
 C                     1.13909   1.82026   2.59755 
 H                     1.2921    2.35886   3.55087 
 H                     0.09233   1.48182   2.56896 
 H                     1.8007    0.93259   2.59579 
 C                     1.70818   1.86474  -2.88503 
 H                     0.64342   1.99394  -3.13109 
 H                     2.28939   2.21994  -3.75486 
 H                     1.90323   0.78229  -2.77102 
 C                     3.67488   2.55376  -1.56066 
 H                     4.09457   3.0301   -0.66456 
 H                     4.04343   1.52393  -1.61294 
 H                     4.08789   3.08895  -2.43454 
 C                     1.80393   4.13186  -1.75845 
 H                     2.21803   4.50481  -2.71305 
 H                     0.73117   4.35606  -1.75866 
 H                     2.27565   4.71989  -0.95498 
 C                    -0.55863  -2.42126  -0.50167 
 C                    -1.58367  -3.34768  -0.27568 
 C                    -0.00949  -2.29848  -1.78197 
 C                    -2.05655  -4.13585  -1.31904 
 H                    -2.02081  -3.45231   0.72103 
 C                    -0.49384  -3.07418  -2.83297 
 H                     0.80897  -1.58837  -1.94742 
 C                    -1.5202   -3.98889  -2.60046 
 H                    -2.85259  -4.86351  -1.14241 
 H                    -0.06808  -2.97525  -3.83433 
 C                     0.11597  -2.31434   2.32799 
 C                     0.32268  -3.69762   2.27913 
 C                     0.15333  -1.66676   3.57336 
 C                     0.55294  -4.42194   3.44821 
 H                     0.3004   -4.2307    1.32556 
 C                     0.37996  -2.38836   4.73869 
 H                     0.00344  -0.58632   3.6361 
 C                     0.58526  -3.76903   4.67713 
 H                     0.70421  -5.50274   3.39999 
 H                     0.39575  -1.87588   5.70408 
 C                     0.88629  -4.52885   5.9447 
 F                     0.68393  -5.83589   5.79471 
 F                     2.16016  -4.35411   6.30642 
 F                     0.12415  -4.10341   6.95194 
 C                    -2.09873  -4.77856  -3.74857 
 F                    -1.19453  -4.97931  -4.70617 
 F                    -2.54668  -5.96575  -3.34516 
 F                    -3.12585  -4.12317  -4.29458 
 
 ITRead=  0  0  0  0  0  0  0  0  0  0  0  0  0  0  0  0  0  0  0  0
 ITRead=  0  0  0  0  0  0  0  0  0  0  0  0  0  0  0  0  0  0  0  0
 ITRead=  0  0  0  0  0  0  0  0  0  0  0  0  0  0  0  0  0  0  0  0
 ITRead=  0  0  0  0  0  0  0  0  0  0  0  0  0  0  0  0  0  0  0  0
 ITRead=  0
 MicOpt= -1 -1 -1 -1 -1 -1 -1 -1 -1 -1 -1 -1 -1 -1 -1 -1 -1 -1 -1 -1
 MicOpt= -1 -1 -1 -1 -1 -1 -1 -1 -1 -1 -1 -1 -1 -1 -1 -1 -1 -1 -1 -1
 MicOpt= -1 -1 -1 -1 -1 -1 -1 -1 -1 -1 -1 -1 -1 -1 -1 -1 -1 -1 -1 -1
 MicOpt= -1 -1 -1 -1 -1 -1 -1 -1 -1 -1 -1 -1 -1 -1 -1 -1 -1 -1 -1 -1
 MicOpt= -1
 NAtoms=     81 NQM=       81 NQMF=       0 NMMI=      0 NMMIF=      0
                NMic=       0 NMicF=      0.
                    Isotopes and Nuclear Properties:
 (Nuclear quadrupole moments (NQMom) in fm**2, nuclear magnetic moments (NMagM)
  in nuclear magnetons)

  Atom         1           2           3           4           5           6           7           8           9          10
 IAtWgt=          12          12          12          12          12           1           1           1           1           1
 AtmWgt=  12.0000000  12.0000000  12.0000000  12.0000000  12.0000000   1.0078250   1.0078250   1.0078250   1.0078250   1.0078250
 NucSpn=           0           0           0           0           0           1           1           1           1           1
 AtZEff=  -0.0000000  -0.0000000  -0.0000000  -0.0000000  -0.0000000  -0.0000000  -0.0000000  -0.0000000  -0.0000000  -0.0000000
 NQMom=    0.0000000   0.0000000   0.0000000   0.0000000   0.0000000   0.0000000   0.0000000   0.0000000   0.0000000   0.0000000
 NMagM=    0.0000000   0.0000000   0.0000000   0.0000000   0.0000000   2.7928460   2.7928460   2.7928460   2.7928460   2.7928460
 AtZNuc=   6.0000000   6.0000000   6.0000000   6.0000000   6.0000000   1.0000000   1.0000000   1.0000000   1.0000000   1.0000000

  Atom        11          12          13          14          15          16          17          18          19          20
 IAtWgt=          56          12          12          12          12          12           1           1           1          12
 AtmWgt=  55.9349393  12.0000000  12.0000000  12.0000000  12.0000000  12.0000000   1.0078250   1.0078250   1.0078250  12.0000000
 NucSpn=           0           0           0           0           0           0           1           1           1           0
 AtZEff=  -0.0000000  -0.0000000  -0.0000000  -0.0000000  -0.0000000  -0.0000000  -0.0000000  -0.0000000  -0.0000000  -0.0000000
 NQMom=    0.0000000   0.0000000   0.0000000   0.0000000   0.0000000   0.0000000   0.0000000   0.0000000   0.0000000   0.0000000
 NMagM=    0.0000000   0.0000000   0.0000000   0.0000000   0.0000000   0.0000000   2.7928460   2.7928460   2.7928460   0.0000000
 AtZNuc=  26.0000000   6.0000000   6.0000000   6.0000000   6.0000000   6.0000000   1.0000000   1.0000000   1.0000000   6.0000000

  Atom        21          22          23          24          25          26          27          28          29          30
 IAtWgt=           1          31          12           1           1           1          31          12          12          12
 AtmWgt=   1.0078250  30.9737634  12.0000000   1.0078250   1.0078250   1.0078250  30.9737634  12.0000000  12.0000000  12.0000000
 NucSpn=           1           1           0           1           1           1           1           0           0           0
 AtZEff=  -0.0000000  -0.0000000  -0.0000000  -0.0000000  -0.0000000  -0.0000000  -0.0000000  -0.0000000  -0.0000000  -0.0000000
 NQMom=    0.0000000   0.0000000   0.0000000   0.0000000   0.0000000   0.0000000   0.0000000   0.0000000   0.0000000   0.0000000
 NMagM=    2.7928460   1.1316000   0.0000000   2.7928460   2.7928460   2.7928460   1.1316000   0.0000000   0.0000000   0.0000000
 AtZNuc=   1.0000000  15.0000000   6.0000000   1.0000000   1.0000000   1.0000000  15.0000000   6.0000000   6.0000000   6.0000000

  Atom        31          32          33          34          35          36          37          38          39          40
 IAtWgt=           1           1           1          12           1           1           1          12           1           1
 AtmWgt=   1.0078250   1.0078250   1.0078250  12.0000000   1.0078250   1.0078250   1.0078250  12.0000000   1.0078250   1.0078250
 NucSpn=           1           1           1           0           1           1           1           0           1           1
 AtZEff=  -0.0000000  -0.0000000  -0.0000000  -0.0000000  -0.0000000  -0.0000000  -0.0000000  -0.0000000  -0.0000000  -0.0000000
 NQMom=    0.0000000   0.0000000   0.0000000   0.0000000   0.0000000   0.0000000   0.0000000   0.0000000   0.0000000   0.0000000
 NMagM=    2.7928460   2.7928460   2.7928460   0.0000000   2.7928460   2.7928460   2.7928460   0.0000000   2.7928460   2.7928460
 AtZNuc=   1.0000000   1.0000000   1.0000000   6.0000000   1.0000000   1.0000000   1.0000000   6.0000000   1.0000000   1.0000000

  Atom        41          42          43          44          45          46          47          48          49          50
 IAtWgt=           1          12           1           1           1          12           1           1           1          12
 AtmWgt=   1.0078250  12.0000000   1.0078250   1.0078250   1.0078250  12.0000000   1.0078250   1.0078250   1.0078250  12.0000000
 NucSpn=           1           0           1           1           1           0           1           1           1           0
 AtZEff=  -0.0000000  -0.0000000  -0.0000000  -0.0000000  -0.0000000  -0.0000000  -0.0000000  -0.0000000  -0.0000000  -0.0000000
 NQMom=    0.0000000   0.0000000   0.0000000   0.0000000   0.0000000   0.0000000   0.0000000   0.0000000   0.0000000   0.0000000
 NMagM=    2.7928460   0.0000000   2.7928460   2.7928460   2.7928460   0.0000000   2.7928460   2.7928460   2.7928460   0.0000000
 AtZNuc=   1.0000000   6.0000000   1.0000000   1.0000000   1.0000000   6.0000000   1.0000000   1.0000000   1.0000000   6.0000000

  Atom        51          52          53          54          55          56          57          58          59          60
 IAtWgt=           1           1           1          12          12          12          12           1          12           1
 AtmWgt=   1.0078250   1.0078250   1.0078250  12.0000000  12.0000000  12.0000000  12.0000000   1.0078250  12.0000000   1.0078250
 NucSpn=           1           1           1           0           0           0           0           1           0           1
 AtZEff=  -0.0000000  -0.0000000  -0.0000000  -0.0000000  -0.0000000  -0.0000000  -0.0000000  -0.0000000  -0.0000000  -0.0000000
 NQMom=    0.0000000   0.0000000   0.0000000   0.0000000   0.0000000   0.0000000   0.0000000   0.0000000   0.0000000   0.0000000
 NMagM=    2.7928460   2.7928460   2.7928460   0.0000000   0.0000000   0.0000000   0.0000000   2.7928460   0.0000000   2.7928460
 AtZNuc=   1.0000000   1.0000000   1.0000000   6.0000000   6.0000000   6.0000000   6.0000000   1.0000000   6.0000000   1.0000000

  Atom        61          62          63          64          65          66          67          68          69          70
 IAtWgt=          12           1           1          12          12          12          12           1          12           1
 AtmWgt=  12.0000000   1.0078250   1.0078250  12.0000000  12.0000000  12.0000000  12.0000000   1.0078250  12.0000000   1.0078250
 NucSpn=           0           1           1           0           0           0           0           1           0           1
 AtZEff=  -0.0000000  -0.0000000  -0.0000000  -0.0000000  -0.0000000  -0.0000000  -0.0000000  -0.0000000  -0.0000000  -0.0000000
 NQMom=    0.0000000   0.0000000   0.0000000   0.0000000   0.0000000   0.0000000   0.0000000   0.0000000   0.0000000   0.0000000
 NMagM=    0.0000000   2.7928460   2.7928460   0.0000000   0.0000000   0.0000000   0.0000000   2.7928460   0.0000000   2.7928460
 AtZNuc=   6.0000000   1.0000000   1.0000000   6.0000000   6.0000000   6.0000000   6.0000000   1.0000000   6.0000000   1.0000000

  Atom        71          72          73          74          75          76          77          78          79          80
 IAtWgt=          12           1           1          12          19          19          19          12          19          19
 AtmWgt=  12.0000000   1.0078250   1.0078250  12.0000000  18.9984032  18.9984032  18.9984032  12.0000000  18.9984032  18.9984032
 NucSpn=           0           1           1           0           1           1           1           0           1           1
 AtZEff=  -0.0000000  -0.0000000  -0.0000000  -0.0000000  -0.0000000  -0.0000000  -0.0000000  -0.0000000  -0.0000000  -0.0000000
 NQMom=    0.0000000   0.0000000   0.0000000   0.0000000   0.0000000   0.0000000   0.0000000   0.0000000   0.0000000   0.0000000
 NMagM=    0.0000000   2.7928460   2.7928460   0.0000000   2.6288670   2.6288670   2.6288670   0.0000000   2.6288670   2.6288670
 AtZNuc=   6.0000000   1.0000000   1.0000000   6.0000000   9.0000000   9.0000000   9.0000000   6.0000000   9.0000000   9.0000000

  Atom        81
 IAtWgt=          19
 AtmWgt=  18.9984032
 NucSpn=           1
 AtZEff=  -0.0000000
 NQMom=    0.0000000
 NMagM=    2.6288670
 AtZNuc=   9.0000000
 Leave Link  101 at Fri Sep 29 19:32:14 2023, MaxMem=  4026531840 cpu:               0.1 elap:               0.1
 (Enter /sw/arch/RHEL8/EB_production/2022/software/Gaussian/g16.c02/l202.exe)
 Symmetry turned off by external request.
 Stoichiometry    C34H38F6FeP2
 Framework group  C1[X(C34H38F6FeP2)]
 Deg. of freedom   237
 Full point group                 C1      NOp   1
                          Input orientation:                          
 ---------------------------------------------------------------------
 Center     Atomic      Atomic             Coordinates (Angstroms)
 Number     Number       Type             X           Y           Z
 ---------------------------------------------------------------------
      1          6           0       -3.565210   -0.907450   -1.311490
      2          6           0       -4.299730   -1.401440   -0.193860
      3          6           0       -5.130820   -0.349920    0.285860
      4          6           0       -4.908450    0.794830   -0.530900
      5          6           0       -3.944570    0.446430   -1.520350
      6          1           0       -2.842600   -1.465760   -1.905540
      7          1           0       -4.239330   -2.404140    0.226610
      8          1           0       -5.797980   -0.402410    1.146510
      9          1           0       -5.378110    1.770940   -0.407100
     10          1           0       -3.563570    1.100550   -2.304460
     11         26           0       -3.166940    0.210160    0.372110
     12          6           0       -2.386510    1.906200    1.194590
     13          6           0       -1.364180    1.172520    0.517450
     14          6           0       -1.302800   -0.127780    1.133850
     15          6           0       -2.295010   -0.178270    2.169780
     16          6           0       -2.949740    1.080620    2.208150
     17          1           0       -2.720480    2.914100    0.953220
     18          1           0       -2.503300   -1.034110    2.810800
     19          1           0       -3.773890    1.352660    2.867390
     20          6           0       -0.523200    1.659140   -0.631970
     21          1           0       -0.505750    0.850300   -1.384340
     22         15           0        0.023620   -1.297410    0.812230
     23          6           0       -1.179890    2.875860   -1.284510
     24          1           0       -0.757900    3.100430   -2.272360
     25          1           0       -2.248420    2.652120   -1.430940
     26          1           0       -1.112840    3.782910   -0.667680
     27         15           0        1.323640    1.745890   -0.166210
     28          6           0        2.145020    2.641800   -1.633910
     29          6           0        1.474000    2.763210    1.433960
     30          6           0        0.537590    3.971140    1.486990
     31          1           0       -0.519690    3.668380    1.482570
     32          1           0        0.716410    4.513690    2.433520
     33          1           0        0.710090    4.682070    0.664880
     34          6           0        2.916130    3.239300    1.626490
     35          1           0        3.003090    3.684060    2.634130
     36          1           0        3.639880    2.409780    1.571700
     37          1           0        3.206770    4.017870    0.904960
     38          6           0        1.139090    1.820260    2.597550
     39          1           0        1.292100    2.358860    3.550870
     40          1           0        0.092330    1.481820    2.568960
     41          1           0        1.800700    0.932590    2.595790
     42          6           0        1.708180    1.864740   -2.885030
     43          1           0        0.643420    1.993940   -3.131090
     44          1           0        2.289390    2.219940   -3.754860
     45          1           0        1.903230    0.782290   -2.771020
     46          6           0        3.674880    2.553760   -1.560660
     47          1           0        4.094570    3.030100   -0.664560
     48          1           0        4.043430    1.523930   -1.612940
     49          1           0        4.087890    3.088950   -2.434540
     50          6           0        1.803930    4.131860   -1.758450
     51          1           0        2.218030    4.504810   -2.713050
     52          1           0        0.731170    4.356060   -1.758660
     53          1           0        2.275650    4.719890   -0.954980
     54          6           0       -0.558630   -2.421260   -0.501670
     55          6           0       -1.583670   -3.347680   -0.275680
     56          6           0       -0.009490   -2.298480   -1.781970
     57          6           0       -2.056550   -4.135850   -1.319040
     58          1           0       -2.020810   -3.452310    0.721030
     59          6           0       -0.493840   -3.074180   -2.832970
     60          1           0        0.808970   -1.588370   -1.947420
     61          6           0       -1.520200   -3.988890   -2.600460
     62          1           0       -2.852590   -4.863510   -1.142410
     63          1           0       -0.068080   -2.975250   -3.834330
     64          6           0        0.115970   -2.314340    2.327990
     65          6           0        0.322680   -3.697620    2.279130
     66          6           0        0.153330   -1.666760    3.573360
     67          6           0        0.552940   -4.421940    3.448210
     68          1           0        0.300400   -4.230700    1.325560
     69          6           0        0.379960   -2.388360    4.738690
     70          1           0        0.003440   -0.586320    3.636100
     71          6           0        0.585260   -3.769030    4.677130
     72          1           0        0.704210   -5.502740    3.399990
     73          1           0        0.395750   -1.875880    5.704080
     74          6           0        0.886290   -4.528850    5.944700
     75          9           0        0.683930   -5.835890    5.794710
     76          9           0        2.160160   -4.354110    6.306420
     77          9           0        0.124150   -4.103410    6.951940
     78          6           0       -2.098730   -4.778560   -3.748570
     79          9           0       -1.194530   -4.979310   -4.706170
     80          9           0       -2.546680   -5.965750   -3.345160
     81          9           0       -3.125850   -4.123170   -4.294580
 ---------------------------------------------------------------------
 Rotational constants (GHZ):           0.0638259           0.0571872           0.0412965
 Leave Link  202 at Fri Sep 29 19:32:14 2023, MaxMem=  4026531840 cpu:               0.1 elap:               0.0
 (Enter /sw/arch/RHEL8/EB_production/2022/software/Gaussian/g16.c02/l301.exe)
 Standard basis: def2SVPP (5D, 7F)
 Ernie: Thresh=  0.10000D-02 Tol=  0.10000D-05 Strict=F.
   696 basis functions,  1297 primitive gaussians,   740 cartesian basis functions
   176 alpha electrons      176 beta electrons
       nuclear repulsion energy      6821.8513169687 Hartrees.
 IExCor= 1009 DFT=T Ex+Corr=PBE1PBE ExCW=0 ScaHFX=  0.250000
 ScaDFX=  0.750000  0.750000  1.000000  1.000000 ScalE2=  1.000000  1.000000
 IRadAn=      5 IRanWt=     -1 IRanGd=            0 ICorTp=0 IEmpDi=141
 NAtoms=   81 NActive=   81 NUniq=   81 SFac= 1.00D+00 NAtFMM=   60 NAOKFM=T Big=T
 Integral buffers will be    131072 words long.
 Raffenetti 2 integral format.
 Two-electron integral symmetry is turned off.
 R6Disp:  Grimme-D3(BJ) Dispersion energy=       -0.1242782636 Hartrees.
 Nuclear repulsion after empirical dispersion term =     6821.7270387050 Hartrees.
 Leave Link  301 at Fri Sep 29 19:32:14 2023, MaxMem=  4026531840 cpu:               0.6 elap:               0.1
 (Enter /sw/arch/RHEL8/EB_production/2022/software/Gaussian/g16.c02/l302.exe)
 NPDir=0 NMtPBC=     1 NCelOv=     1 NCel=       1 NClECP=     1 NCelD=      1
         NCelK=      1 NCelE2=     1 NClLst=     1 CellRange=     0.0.
 One-electron integrals computed using PRISM.
   1 Symmetry operations used in ECPInt.
 ECPInt:  NShTT=   58653 NPrTT=  243276 LenC2=   48253 LenP2D=  124407.
 LDataN:  DoStor=T MaxTD1= 4 Len=   56
 NBasis=   696 RedAO= T EigKep=  2.56D-04  NBF=   696
 NBsUse=   696 1.00D-06 EigRej= -1.00D+00 NBFU=   696
 Precomputing XC quadrature grid using
 IXCGrd= 4 IRadAn=           5 IRanWt=          -1 IRanGd=           0 AccXCQ= 0.00D+00.
 Generated NRdTot=       0 NPtTot=           0 NUsed=           0 NTot=          32
 NSgBfM=   711   711   711   711   711 MxSgAt=    81 MxSgA2=    81.
 Leave Link  302 at Fri Sep 29 19:32:15 2023, MaxMem=  4026531840 cpu:              14.4 elap:               0.9
 (Enter /sw/arch/RHEL8/EB_production/2022/software/Gaussian/g16.c02/l303.exe)
 DipDrv:  MaxL=1.
 Leave Link  303 at Fri Sep 29 19:32:15 2023, MaxMem=  4026531840 cpu:               0.4 elap:               0.1
 (Enter /sw/arch/RHEL8/EB_production/2022/software/Gaussian/g16.c02/l401.exe)
 ExpMin= 3.37D-02 ExpMax= 6.09D+04 ExpMxC= 9.15D+03 IAcc=3 IRadAn=         5 AccDes= 0.00D+00
 Harris functional with IExCor= 1009 and IRadAn=       5 diagonalized for initial guess.
 HarFok:  IExCor= 1009 AccDes= 0.00D+00 IRadAn=         5 IDoV= 1 UseB2=F ITyADJ=14
 ICtDFT=  3500011 ScaDFX=  1.000000  1.000000  1.000000  1.000000
 FoFCou: FMM=F IPFlag=           0 FMFlag=      100000 FMFlg1=        2001
         NFxFlg=           0 DoJE=T BraDBF=F KetDBF=T FulRan=T
         wScrn=  0.000000 ICntrl=       500 IOpCl=  0 I1Cent=   200000004 NGrid=           0
         NMat0=    1 NMatS0=      1 NMatT0=    0 NMatD0=    1 NMtDS0=    0 NMtDT0=    0
 Symmetry not used in FoFCou.
 Harris En= -3859.99587000456    
 JPrj=0 DoOrth=F DoCkMO=F.
 Leave Link  401 at Fri Sep 29 19:32:18 2023, MaxMem=  4026531840 cpu:              66.2 elap:               2.4
 (Enter /sw/arch/RHEL8/EB_production/2022/software/Gaussian/g16.c02/l502.exe)
 Two-electron integral symmetry not used.
 Closed shell SCF:
 Using DIIS extrapolation, IDIIS=  1040.
 NGot=  4026531840 LenX=  4025403748 LenY=  4024855408
 Requested convergence on RMS density matrix=1.00D-08 within  90 cycles.
 Requested convergence on MAX density matrix=1.00D-06.
 Requested convergence on             energy=1.00D-06.
 No special actions if energy rises.
 Fock matrices will be formed incrementally for  20 cycles.

 Cycle   1  Pass 1  IDiag  1:
 FoFJK:  IHMeth= 1 ICntrl=       0 DoSepK=F KAlg= 0 I1Cent=           0 FoldK=F
 IRaf= 990000000 NMat=       1 IRICut=       1 DoRegI=T DoRafI=F ISym2E= 0 IDoP0=0 IntGTp=1.
 FoFCou: FMM=T IPFlag=           0 FMFlag=      100000 FMFlg1=        2001
         NFxFlg=           0 DoJE=F BraDBF=F KetDBF=F FulRan=T
         wScrn=  0.000000 ICntrl=         0 IOpCl=  0 I1Cent=           0 NGrid=           0
         NMat0=    1 NMatS0=      1 NMatT0=    0 NMatD0=    1 NMtDS0=    0 NMtDT0=    0
 Symmetry not used in FoFCou.
 FMM levels:  10  Number of levels for PrismC:   9
 E= -3858.69988843656    
 DIIS: error= 2.34D-02 at cycle   1 NSaved=   1.
 NSaved= 1 IEnMin= 1 EnMin= -3858.69988843656     IErMin= 1 ErrMin= 2.34D-02
 ErrMax= 2.34D-02  0.00D+00 EMaxC= 1.00D-01 BMatC= 9.75D-01 BMatP= 9.75D-01
 IDIUse=3 WtCom= 7.66D-01 WtEn= 2.34D-01
 Coeff-Com:  0.100D+01
 Coeff-En:   0.100D+01
 Coeff:      0.100D+01
 Gap=     0.195 Goal=   None    Shift=    0.000
 GapD=    0.195 DampG=1.000 DampE=0.250 DampFc=0.2500 IDamp=-1.
 Damping current iteration by 2.50D-01
 RMSDP=3.95D-03 MaxDP=2.00D-01              OVMax= 1.72D-01

 Cycle   2  Pass 1  IDiag  1:
 RMSU=  9.46D-04    CP:  9.83D-01
 E= -3859.04295239134     Delta-E=       -0.343063954777 Rises=F Damp=T
 DIIS: error= 1.10D-02 at cycle   2 NSaved=   2.
 NSaved= 2 IEnMin= 2 EnMin= -3859.04295239134     IErMin= 2 ErrMin= 1.10D-02
 ErrMax= 1.10D-02  0.00D+00 EMaxC= 1.00D-01 BMatC= 2.37D-01 BMatP= 9.75D-01
 IDIUse=3 WtCom= 8.90D-01 WtEn= 1.10D-01
 Coeff-Com: -0.581D+00 0.158D+01
 Coeff-En:   0.000D+00 0.100D+01
 Coeff:     -0.517D+00 0.152D+01
 Gap=     0.174 Goal=   None    Shift=    0.000
 RMSDP=3.81D-03 MaxDP=3.51D-01 DE=-3.43D-01 OVMax= 4.68D-01

 Cycle   3  Pass 1  IDiag  1:
 RMSU=  3.78D-03    CP:  9.82D-01  1.53D+00
 E= -3857.88660327833     Delta-E=        1.156349113015 Rises=F Damp=F
 DIIS: error= 1.41D-01 at cycle   3 NSaved=   3.
 NSaved= 3 IEnMin= 2 EnMin= -3859.04295239134     IErMin= 2 ErrMin= 1.10D-02
 ErrMax= 1.41D-01  0.00D+00 EMaxC= 1.00D-01 BMatC= 2.81D+00 BMatP= 2.37D-01
 IDIUse=2 WtCom= 0.00D+00 WtEn= 1.00D+00
 Coeff-En:   0.000D+00 0.798D+00 0.202D+00
 Coeff:      0.000D+00 0.798D+00 0.202D+00
 Gap=     0.323 Goal=   None    Shift=    0.000
 RMSDP=5.11D-03 MaxDP=3.96D-01 DE= 1.16D+00 OVMax= 3.08D-01

 Cycle   4  Pass 1  IDiag  1:
 RMSU=  1.38D-03    CP:  9.35D-01  2.76D+00 -2.46D-01
 E= -3858.06827235453     Delta-E=       -0.181669076208 Rises=F Damp=F
 DIIS: error= 9.41D-02 at cycle   4 NSaved=   4.
 NSaved= 4 IEnMin= 2 EnMin= -3859.04295239134     IErMin= 2 ErrMin= 1.10D-02
 ErrMax= 9.41D-02  0.00D+00 EMaxC= 1.00D-01 BMatC= 2.68D+00 BMatP= 2.37D-01
 IDIUse=2 WtCom= 0.00D+00 WtEn= 1.00D+00
 EnCoef did     2 forward-backward iterations
 Coeff-En:   0.623D-01 0.000D+00 0.450D+00 0.487D+00
 Coeff:      0.623D-01 0.000D+00 0.450D+00 0.487D+00
 Gap=     0.119 Goal=   None    Shift=    0.000
 RMSDP=2.17D-03 MaxDP=2.13D-01 DE=-1.82D-01 OVMax= 2.61D-01

 Cycle   5  Pass 1  IDiag  1:
 RMSU=  8.07D-04    CP:  9.66D-01  1.53D+00  1.19D-01  4.69D-01
 E= -3859.62222924750     Delta-E=       -1.553956892965 Rises=F Damp=F
 DIIS: error= 8.05D-03 at cycle   5 NSaved=   5.
 NSaved= 5 IEnMin= 5 EnMin= -3859.62222924750     IErMin= 5 ErrMin= 8.05D-03
 ErrMax= 8.05D-03  0.00D+00 EMaxC= 1.00D-01 BMatC= 5.67D-02 BMatP= 2.37D-01
 IDIUse=3 WtCom= 9.20D-01 WtEn= 8.05D-02
 Coeff-Com: -0.560D+00 0.758D+00 0.622D-01-0.852D-01 0.825D+00
 Coeff-En:   0.000D+00 0.000D+00 0.934D-02 0.000D+00 0.991D+00
 Coeff:     -0.515D+00 0.697D+00 0.580D-01-0.783D-01 0.838D+00
 Gap=     0.145 Goal=   None    Shift=    0.000
 RMSDP=5.91D-04 MaxDP=5.85D-02 DE=-1.55D+00 OVMax= 3.01D-02

 Cycle   6  Pass 1  IDiag  1:
 RMSU=  2.53D-04    CP:  9.63D-01  1.95D+00  1.80D-01  2.68D-01  9.95D-01
 E= -3859.67740405126     Delta-E=       -0.055174803760 Rises=F Damp=F
 DIIS: error= 1.63D-03 at cycle   6 NSaved=   6.
 NSaved= 6 IEnMin= 6 EnMin= -3859.67740405126     IErMin= 6 ErrMin= 1.63D-03
 ErrMax= 1.63D-03  0.00D+00 EMaxC= 1.00D-01 BMatC= 2.69D-03 BMatP= 5.67D-02
 IDIUse=3 WtCom= 9.84D-01 WtEn= 1.63D-02
 Coeff-Com: -0.288D+00 0.386D+00 0.277D-01-0.529D-01 0.448D+00 0.479D+00
 Coeff-En:   0.000D+00 0.000D+00 0.000D+00 0.000D+00 0.000D+00 0.100D+01
 Coeff:     -0.283D+00 0.380D+00 0.273D-01-0.521D-01 0.441D+00 0.487D+00
 Gap=     0.140 Goal=   None    Shift=    0.000
 RMSDP=1.61D-04 MaxDP=1.02D-02 DE=-5.52D-02 OVMax= 1.58D-02

 Cycle   7  Pass 1  IDiag  1:
 RMSU=  8.82D-05    CP:  9.62D-01  1.92D+00  1.61D-01  2.92D-01  1.01D+00
                    CP:  5.85D-01
 E= -3859.67944717978     Delta-E=       -0.002043128525 Rises=F Damp=F
 DIIS: error= 1.49D-03 at cycle   7 NSaved=   7.
 NSaved= 7 IEnMin= 7 EnMin= -3859.67944717978     IErMin= 7 ErrMin= 1.49D-03
 ErrMax= 1.49D-03  0.00D+00 EMaxC= 1.00D-01 BMatC= 1.02D-03 BMatP= 2.69D-03
 IDIUse=3 WtCom= 9.85D-01 WtEn= 1.49D-02
 Coeff-Com: -0.540D-01 0.687D-01 0.746D-02-0.196D-01 0.899D-01 0.283D+00
 Coeff-Com:  0.624D+00
 Coeff-En:   0.000D+00 0.000D+00 0.000D+00 0.000D+00 0.000D+00 0.174D+00
 Coeff-En:   0.826D+00
 Coeff:     -0.532D-01 0.677D-01 0.735D-02-0.193D-01 0.885D-01 0.282D+00
 Coeff:      0.627D+00
 Gap=     0.140 Goal=   None    Shift=    0.000
 RMSDP=5.95D-05 MaxDP=3.73D-03 DE=-2.04D-03 OVMax= 6.33D-03

 Cycle   8  Pass 1  IDiag  1:
 RMSU=  4.07D-05    CP:  9.63D-01  1.92D+00  1.62D-01  2.86D-01  1.02D+00
                    CP:  6.88D-01  6.38D-01
 E= -3859.68012617832     Delta-E=       -0.000678998542 Rises=F Damp=F
 DIIS: error= 5.78D-04 at cycle   8 NSaved=   8.
 NSaved= 8 IEnMin= 8 EnMin= -3859.68012617832     IErMin= 8 ErrMin= 5.78D-04
 ErrMax= 5.78D-04  0.00D+00 EMaxC= 1.00D-01 BMatC= 1.73D-04 BMatP= 1.02D-03
 IDIUse=3 WtCom= 9.94D-01 WtEn= 5.78D-03
 Coeff-Com:  0.220D-01-0.327D-01 0.823D-03-0.405D-02-0.304D-01 0.846D-01
 Coeff-Com:  0.387D+00 0.573D+00
 Coeff-En:   0.000D+00 0.000D+00 0.000D+00 0.000D+00 0.000D+00 0.000D+00
 Coeff-En:   0.000D+00 0.100D+01
 Coeff:      0.219D-01-0.325D-01 0.818D-03-0.402D-02-0.303D-01 0.841D-01
 Coeff:      0.385D+00 0.575D+00
 Gap=     0.140 Goal=   None    Shift=    0.000
 RMSDP=2.44D-05 MaxDP=1.42D-03 DE=-6.79D-04 OVMax= 2.61D-03

 Cycle   9  Pass 1  IDiag  1:
 RMSU=  1.62D-05    CP:  9.62D-01  1.92D+00  1.64D-01  2.85D-01  1.03D+00
                    CP:  6.85D-01  7.79D-01  7.04D-01
 E= -3859.68026642116     Delta-E=       -0.000140242832 Rises=F Damp=F
 DIIS: error= 1.38D-04 at cycle   9 NSaved=   9.
 NSaved= 9 IEnMin= 9 EnMin= -3859.68026642116     IErMin= 9 ErrMin= 1.38D-04
 ErrMax= 1.38D-04  0.00D+00 EMaxC= 1.00D-01 BMatC= 1.02D-05 BMatP= 1.73D-04
 IDIUse=3 WtCom= 9.99D-01 WtEn= 1.38D-03
 Coeff-Com:  0.148D-01-0.205D-01-0.514D-04-0.580D-03-0.228D-01 0.996D-02
 Coeff-Com:  0.106D+00 0.261D+00 0.652D+00
 Coeff-En:   0.000D+00 0.000D+00 0.000D+00 0.000D+00 0.000D+00 0.000D+00
 Coeff-En:   0.000D+00 0.000D+00 0.100D+01
 Coeff:      0.147D-01-0.205D-01-0.513D-04-0.579D-03-0.228D-01 0.995D-02
 Coeff:      0.106D+00 0.261D+00 0.652D+00
 Gap=     0.140 Goal=   None    Shift=    0.000
 RMSDP=8.38D-06 MaxDP=6.01D-04 DE=-1.40D-04 OVMax= 9.08D-04

 Cycle  10  Pass 1  IDiag  1:
 RMSU=  6.76D-06    CP:  9.62D-01  1.92D+00  1.64D-01  2.85D-01  1.03D+00
                    CP:  6.90D-01  7.70D-01  7.90D-01  8.16D-01
 E= -3859.68027437781     Delta-E=       -0.000007956658 Rises=F Damp=F
 DIIS: error= 2.49D-05 at cycle  10 NSaved=  10.
 NSaved=10 IEnMin=10 EnMin= -3859.68027437781     IErMin=10 ErrMin= 2.49D-05
 ErrMax= 2.49D-05  0.00D+00 EMaxC= 1.00D-01 BMatC= 1.44D-06 BMatP= 1.02D-05
 IDIUse=1 WtCom= 1.00D+00 WtEn= 0.00D+00
 Coeff-Com:  0.556D-02-0.734D-02-0.198D-03 0.163D-03-0.919D-02-0.534D-02
 Coeff-Com:  0.802D-02 0.736D-01 0.407D+00 0.528D+00
 Coeff:      0.556D-02-0.734D-02-0.198D-03 0.163D-03-0.919D-02-0.534D-02
 Coeff:      0.802D-02 0.736D-01 0.407D+00 0.528D+00
 Gap=     0.140 Goal=   None    Shift=    0.000
 RMSDP=3.68D-06 MaxDP=3.59D-04 DE=-7.96D-06 OVMax= 2.99D-04

 Cycle  11  Pass 1  IDiag  1:
 RMSU=  2.15D-06    CP:  9.62D-01  1.92D+00  1.63D-01  2.84D-01  1.03D+00
                    CP:  6.90D-01  7.76D-01  7.84D-01  9.24D-01  6.56D-01
 E= -3859.68027572960     Delta-E=       -0.000001351784 Rises=F Damp=F
 DIIS: error= 4.08D-05 at cycle  11 NSaved=  11.
 NSaved=11 IEnMin=11 EnMin= -3859.68027572960     IErMin=10 ErrMin= 2.49D-05
 ErrMax= 4.08D-05  0.00D+00 EMaxC= 1.00D-01 BMatC= 3.97D-07 BMatP= 1.44D-06
 IDIUse=1 WtCom= 1.00D+00 WtEn= 0.00D+00
 Coeff-Com:  0.128D-02-0.157D-02-0.167D-03 0.158D-03-0.224D-02-0.312D-02
 Coeff-Com: -0.581D-02 0.132D-01 0.166D+00 0.302D+00 0.530D+00
 Coeff:      0.128D-02-0.157D-02-0.167D-03 0.158D-03-0.224D-02-0.312D-02
 Coeff:     -0.581D-02 0.132D-01 0.166D+00 0.302D+00 0.530D+00
 Gap=     0.140 Goal=   None    Shift=    0.000
 RMSDP=1.26D-06 MaxDP=8.14D-05 DE=-1.35D-06 OVMax= 1.18D-04

 Cycle  12  Pass 1  IDiag  1:
 RMSU=  8.40D-07    CP:  9.62D-01  1.92D+00  1.63D-01  2.84D-01  1.03D+00
                    CP:  6.90D-01  7.77D-01  7.89D-01  9.29D-01  7.09D-01
                    CP:  7.00D-01
 E= -3859.68027599452     Delta-E=       -0.000000264918 Rises=F Damp=F
 DIIS: error= 2.21D-05 at cycle  12 NSaved=  12.
 NSaved=12 IEnMin=12 EnMin= -3859.68027599452     IErMin=12 ErrMin= 2.21D-05
 ErrMax= 2.21D-05  0.00D+00 EMaxC= 1.00D-01 BMatC= 9.94D-08 BMatP= 3.97D-07
 IDIUse=1 WtCom= 1.00D+00 WtEn= 0.00D+00
 Coeff-Com: -0.132D-03 0.223D-03-0.978D-04 0.768D-04 0.216D-03-0.455D-03
 Coeff-Com: -0.295D-02-0.159D-02 0.363D-01 0.824D-01 0.226D+00 0.660D+00
 Coeff:     -0.132D-03 0.223D-03-0.978D-04 0.768D-04 0.216D-03-0.455D-03
 Coeff:     -0.295D-02-0.159D-02 0.363D-01 0.824D-01 0.226D+00 0.660D+00
 Gap=     0.140 Goal=   None    Shift=    0.000
 RMSDP=7.31D-07 MaxDP=5.31D-05 DE=-2.65D-07 OVMax= 9.00D-05

 Cycle  13  Pass 1  IDiag  1:
 RMSU=  3.70D-07    CP:  9.62D-01  1.92D+00  1.63D-01  2.85D-01  1.03D+00
                    CP:  6.90D-01  7.77D-01  7.91D-01  9.40D-01  7.22D-01
                    CP:  8.37D-01  1.04D+00
 E= -3859.68027606358     Delta-E=       -0.000000069067 Rises=F Damp=F
 DIIS: error= 9.11D-06 at cycle  13 NSaved=  13.
 NSaved=13 IEnMin=13 EnMin= -3859.68027606358     IErMin=13 ErrMin= 9.11D-06
 ErrMax= 9.11D-06  0.00D+00 EMaxC= 1.00D-01 BMatC= 1.73D-08 BMatP= 9.94D-08
 IDIUse=1 WtCom= 1.00D+00 WtEn= 0.00D+00
 Coeff-Com: -0.431D-03 0.552D-03-0.229D-04 0.704D-05 0.756D-03 0.741D-03
 Coeff-Com:  0.517D-03-0.373D-02-0.258D-01-0.452D-01-0.590D-01 0.314D+00
 Coeff-Com:  0.818D+00
 Coeff:     -0.431D-03 0.552D-03-0.229D-04 0.704D-05 0.756D-03 0.741D-03
 Coeff:      0.517D-03-0.373D-02-0.258D-01-0.452D-01-0.590D-01 0.314D+00
 Coeff:      0.818D+00
 Gap=     0.140 Goal=   None    Shift=    0.000
 RMSDP=5.98D-07 MaxDP=5.21D-05 DE=-6.91D-08 OVMax= 9.53D-05

 Cycle  14  Pass 1  IDiag  1:
 RMSU=  2.07D-07    CP:  9.62D-01  1.92D+00  1.63D-01  2.85D-01  1.03D+00
                    CP:  6.90D-01  7.77D-01  7.91D-01  9.48D-01  7.44D-01
                    CP:  8.99D-01  1.40D+00  1.19D+00
 E= -3859.68027608502     Delta-E=       -0.000000021439 Rises=F Damp=F
 DIIS: error= 1.38D-06 at cycle  14 NSaved=  14.
 NSaved=14 IEnMin=14 EnMin= -3859.68027608502     IErMin=14 ErrMin= 1.38D-06
 ErrMax= 1.38D-06  0.00D+00 EMaxC= 1.00D-01 BMatC= 9.99D-10 BMatP= 1.73D-08
 IDIUse=1 WtCom= 1.00D+00 WtEn= 0.00D+00
 Coeff-Com: -0.147D-03 0.176D-03 0.115D-04-0.135D-04 0.240D-03 0.372D-03
 Coeff-Com:  0.944D-03-0.125D-02-0.212D-01-0.446D-01-0.958D-01-0.300D-01
 Coeff-Com:  0.420D+00 0.771D+00
 Coeff:     -0.147D-03 0.176D-03 0.115D-04-0.135D-04 0.240D-03 0.372D-03
 Coeff:      0.944D-03-0.125D-02-0.212D-01-0.446D-01-0.958D-01-0.300D-01
 Coeff:      0.420D+00 0.771D+00
 Gap=     0.140 Goal=   None    Shift=    0.000
 RMSDP=2.93D-07 MaxDP=3.04D-05 DE=-2.14D-08 OVMax= 6.35D-05

 Cycle  15  Pass 1  IDiag  1:
 RMSU=  9.27D-08    CP:  9.62D-01  1.92D+00  1.63D-01  2.85D-01  1.03D+00
                    CP:  6.90D-01  7.77D-01  7.92D-01  9.52D-01  7.51D-01
                    CP:  9.43D-01  1.59D+00  1.61D+00  1.11D+00
 E= -3859.68027609001     Delta-E=       -0.000000004989 Rises=F Damp=F
 DIIS: error= 1.85D-06 at cycle  15 NSaved=  15.
 NSaved=15 IEnMin=15 EnMin= -3859.68027609001     IErMin=14 ErrMin= 1.38D-06
 ErrMax= 1.85D-06  0.00D+00 EMaxC= 1.00D-01 BMatC= 8.44D-10 BMatP= 9.99D-10
 IDIUse=1 WtCom= 1.00D+00 WtEn= 0.00D+00
 Coeff-Com:  0.202D-04-0.307D-04 0.128D-04-0.888D-05-0.497D-04-0.259D-04
 Coeff-Com:  0.176D-03-0.823D-04-0.475D-02-0.113D-01-0.287D-01-0.640D-01
 Coeff-Com:  0.154D-01 0.329D+00 0.764D+00
 Coeff:      0.202D-04-0.307D-04 0.128D-04-0.888D-05-0.497D-04-0.259D-04
 Coeff:      0.176D-03-0.823D-04-0.475D-02-0.113D-01-0.287D-01-0.640D-01
 Coeff:      0.154D-01 0.329D+00 0.764D+00
 Gap=     0.140 Goal=   None    Shift=    0.000
 RMSDP=1.40D-07 MaxDP=1.57D-05 DE=-4.99D-09 OVMax= 3.21D-05

 Cycle  16  Pass 1  IDiag  1:
 RMSU=  5.50D-08    CP:  9.62D-01  1.92D+00  1.63D-01  2.85D-01  1.03D+00
                    CP:  6.90D-01  7.78D-01  7.92D-01  9.52D-01  7.52D-01
                    CP:  9.64D-01  1.69D+00  1.76D+00  1.38D+00  1.13D+00
 E= -3859.68027609137     Delta-E=       -0.000000001362 Rises=F Damp=F
 DIIS: error= 1.22D-06 at cycle  16 NSaved=  16.
 NSaved=16 IEnMin=16 EnMin= -3859.68027609137     IErMin=16 ErrMin= 1.22D-06
 ErrMax= 1.22D-06  0.00D+00 EMaxC= 1.00D-01 BMatC= 2.90D-10 BMatP= 8.44D-10
 IDIUse=1 WtCom= 1.00D+00 WtEn= 0.00D+00
 Coeff-Com:  0.384D-04-0.486D-04 0.575D-05-0.230D-05-0.629D-04-0.897D-04
 Coeff-Com: -0.206D-03 0.838D-04 0.311D-02 0.742D-02 0.186D-01-0.436D-02
 Coeff-Com: -0.123D+00-0.134D+00 0.285D+00 0.947D+00
 Coeff:      0.384D-04-0.486D-04 0.575D-05-0.230D-05-0.629D-04-0.897D-04
 Coeff:     -0.206D-03 0.838D-04 0.311D-02 0.742D-02 0.186D-01-0.436D-02
 Coeff:     -0.123D+00-0.134D+00 0.285D+00 0.947D+00
 Gap=     0.140 Goal=   None    Shift=    0.000
 RMSDP=1.02D-07 MaxDP=1.15D-05 DE=-1.36D-09 OVMax= 2.37D-05

 Cycle  17  Pass 1  IDiag  1:
 RMSU=  2.74D-08    CP:  9.62D-01  1.92D+00  1.63D-01  2.85D-01  1.03D+00
                    CP:  6.90D-01  7.78D-01  7.92D-01  9.53D-01  7.54D-01
                    CP:  9.77D-01  1.76D+00  1.90D+00  1.55D+00  1.47D+00
                    CP:  1.15D+00
 E= -3859.68027609211     Delta-E=       -0.000000000735 Rises=F Damp=F
 DIIS: error= 2.57D-07 at cycle  17 NSaved=  17.
 NSaved=17 IEnMin=17 EnMin= -3859.68027609211     IErMin=17 ErrMin= 2.57D-07
 ErrMax= 2.57D-07  0.00D+00 EMaxC= 1.00D-01 BMatC= 3.44D-11 BMatP= 2.90D-10
 IDIUse=1 WtCom= 1.00D+00 WtEn= 0.00D+00
 Coeff-Com:  0.126D-04-0.147D-04 0.136D-05 0.163D-07-0.137D-04-0.273D-04
 Coeff-Com: -0.129D-03 0.941D-05 0.237D-02 0.626D-02 0.172D-01 0.136D-01
 Coeff-Com: -0.746D-01-0.162D+00-0.437D-01 0.565D+00 0.677D+00
 Coeff:      0.126D-04-0.147D-04 0.136D-05 0.163D-07-0.137D-04-0.273D-04
 Coeff:     -0.129D-03 0.941D-05 0.237D-02 0.626D-02 0.172D-01 0.136D-01
 Coeff:     -0.746D-01-0.162D+00-0.437D-01 0.565D+00 0.677D+00
 Gap=     0.140 Goal=   None    Shift=    0.000
 RMSDP=4.68D-08 MaxDP=4.80D-06 DE=-7.35D-10 OVMax= 1.03D-05

 Cycle  18  Pass 1  IDiag  1:
 RMSU=  1.17D-08    CP:  9.62D-01  1.92D+00  1.63D-01  2.85D-01  1.03D+00
                    CP:  6.90D-01  7.78D-01  7.92D-01  9.53D-01  7.55D-01
                    CP:  9.82D-01  1.79D+00  1.95D+00  1.62D+00  1.62D+00
                    CP:  1.37D+00  7.79D-01
 E= -3859.68027609225     Delta-E=       -0.000000000146 Rises=F Damp=F
 DIIS: error= 7.90D-08 at cycle  18 NSaved=  18.
 NSaved=18 IEnMin=18 EnMin= -3859.68027609225     IErMin=18 ErrMin= 7.90D-08
 ErrMax= 7.90D-08  0.00D+00 EMaxC= 1.00D-01 BMatC= 5.02D-12 BMatP= 3.44D-11
 IDIUse=1 WtCom= 1.00D+00 WtEn= 0.00D+00
 Coeff-Com:  0.434D-06 0.504D-07 0.101D-06 0.171D-06 0.406D-05 0.558D-05
 Coeff-Com: -0.188D-04-0.865D-05 0.609D-03 0.190D-02 0.590D-02 0.703D-02
 Coeff-Com: -0.209D-01-0.649D-01-0.686D-01 0.163D+00 0.388D+00 0.588D+00
 Coeff:      0.434D-06 0.504D-07 0.101D-06 0.171D-06 0.406D-05 0.558D-05
 Coeff:     -0.188D-04-0.865D-05 0.609D-03 0.190D-02 0.590D-02 0.703D-02
 Coeff:     -0.209D-01-0.649D-01-0.686D-01 0.163D+00 0.388D+00 0.588D+00
 Gap=     0.140 Goal=   None    Shift=    0.000
 RMSDP=1.12D-08 MaxDP=1.06D-06 DE=-1.46D-10 OVMax= 2.21D-06

 Cycle  19  Pass 1  IDiag  1:
 RMSU=  4.05D-09    CP:  9.62D-01  1.92D+00  1.63D-01  2.85D-01  1.03D+00
                    CP:  6.90D-01  7.78D-01  7.92D-01  9.53D-01  7.55D-01
                    CP:  9.84D-01  1.80D+00  1.96D+00  1.64D+00  1.65D+00
                    CP:  1.42D+00  9.09D-01  7.43D-01
 E= -3859.68027609222     Delta-E=        0.000000000038 Rises=F Damp=F
 DIIS: error= 1.56D-08 at cycle  19 NSaved=  19.
 NSaved=19 IEnMin=18 EnMin= -3859.68027609225     IErMin=19 ErrMin= 1.56D-08
 ErrMax= 1.56D-08  0.00D+00 EMaxC= 1.00D-01 BMatC= 5.49D-13 BMatP= 5.02D-12
 IDIUse=1 WtCom= 1.00D+00 WtEn= 0.00D+00
 Coeff-Com: -0.935D-06 0.135D-05-0.639D-07 0.786D-07 0.364D-05 0.663D-05
 Coeff-Com:  0.512D-05-0.380D-05 0.827D-04 0.380D-03 0.146D-02 0.226D-02
 Coeff-Com: -0.404D-02-0.188D-01-0.331D-01 0.335D-01 0.147D+00 0.325D+00
 Coeff-Com:  0.546D+00
 Coeff:     -0.935D-06 0.135D-05-0.639D-07 0.786D-07 0.364D-05 0.663D-05
 Coeff:      0.512D-05-0.380D-05 0.827D-04 0.380D-03 0.146D-02 0.226D-02
 Coeff:     -0.404D-02-0.188D-01-0.331D-01 0.335D-01 0.147D+00 0.325D+00
 Coeff:      0.546D+00
 Gap=     0.140 Goal=   None    Shift=    0.000
 RMSDP=2.42D-09 MaxDP=1.82D-07 DE= 3.82D-11 OVMax= 3.89D-07

 SCF Done:  E(RPBE1PBE) =  -3859.68027609     A.U. after   19 cycles
            NFock= 19  Conv=0.24D-08     -V/T= 2.0053
 KE= 3.839309568704D+03 PE=-2.274329883874D+04 EE= 8.222581955243D+03
 Leave Link  502 at Fri Sep 29 19:34:30 2023, MaxMem=  4026531840 cpu:            3770.0 elap:             132.4
 (Enter /sw/arch/RHEL8/EB_production/2022/software/Gaussian/g16.c02/l508.exe)
 QCSCF skips out because SCF is already converged.
 Leave Link  508 at Fri Sep 29 19:34:30 2023, MaxMem=  4026531840 cpu:               0.0 elap:               0.0
 (Enter /sw/arch/RHEL8/EB_production/2022/software/Gaussian/g16.c02/l601.exe)
 Copying SCF densities to generalized density rwf, IOpCl= 0 IROHF=0.

 **********************************************************************

            Population analysis using the SCF Density.

 **********************************************************************

 Alpha  occ. eigenvalues -- -256.35927 -77.20516 -77.18012 -30.13389 -25.98241
 Alpha  occ. eigenvalues --  -25.96351 -25.96328 -24.81113 -24.81109 -24.80578
 Alpha  occ. eigenvalues --  -24.80380 -24.80111 -24.79603 -10.48344 -10.47344
 Alpha  occ. eigenvalues --  -10.27490 -10.26605 -10.26539 -10.26467 -10.26362
 Alpha  occ. eigenvalues --  -10.26275 -10.26251 -10.26214 -10.25877 -10.25695
 Alpha  occ. eigenvalues --  -10.25631 -10.25615 -10.25412 -10.25392 -10.25358
 Alpha  occ. eigenvalues --  -10.25308 -10.25217 -10.25068 -10.25043 -10.25029
 Alpha  occ. eigenvalues --  -10.24852 -10.24804 -10.24723 -10.24631 -10.24516
 Alpha  occ. eigenvalues --  -10.22753 -10.22682 -10.22208 -10.22020 -10.21850
 Alpha  occ. eigenvalues --  -10.21825 -10.21671  -6.61557  -6.58934  -4.75618
 Alpha  occ. eigenvalues --   -4.75592  -4.75072  -4.73001  -4.72960  -4.72422
 Alpha  occ. eigenvalues --   -3.46557  -2.25540  -2.20794  -2.20751  -1.34260
 Alpha  occ. eigenvalues --   -1.33354  -1.24863  -1.24372  -1.24013  -1.23412
 Alpha  occ. eigenvalues --   -0.93096  -0.91125  -0.90887  -0.89664  -0.84492
 Alpha  occ. eigenvalues --   -0.82490  -0.82466  -0.81003  -0.80599  -0.79029
 Alpha  occ. eigenvalues --   -0.77885  -0.75777  -0.73654  -0.73520  -0.72749
 Alpha  occ. eigenvalues --   -0.72713  -0.71621  -0.70761  -0.70248  -0.69509
 Alpha  occ. eigenvalues --   -0.69332  -0.67509  -0.66606  -0.65571  -0.64991
 Alpha  occ. eigenvalues --   -0.64316  -0.61861  -0.61794  -0.61404  -0.61288
 Alpha  occ. eigenvalues --   -0.60932  -0.60515  -0.59713  -0.58719  -0.57405
 Alpha  occ. eigenvalues --   -0.56473  -0.56220  -0.56160  -0.55611  -0.54038
 Alpha  occ. eigenvalues --   -0.53341  -0.52183  -0.51434  -0.50389  -0.49597
 Alpha  occ. eigenvalues --   -0.49301  -0.48810  -0.48607  -0.48355  -0.48165
 Alpha  occ. eigenvalues --   -0.47849  -0.47386  -0.47305  -0.46562  -0.46484
 Alpha  occ. eigenvalues --   -0.46418  -0.46060  -0.45649  -0.45483  -0.44895
 Alpha  occ. eigenvalues --   -0.44680  -0.44604  -0.44467  -0.44009  -0.43779
 Alpha  occ. eigenvalues --   -0.43492  -0.43154  -0.43058  -0.43042  -0.42690
 Alpha  occ. eigenvalues --   -0.42188  -0.42085  -0.41609  -0.41040  -0.40920
 Alpha  occ. eigenvalues --   -0.40381  -0.40231  -0.40022  -0.39948  -0.39786
 Alpha  occ. eigenvalues --   -0.39696  -0.39288  -0.38927  -0.38763  -0.38392
 Alpha  occ. eigenvalues --   -0.38197  -0.37814  -0.37769  -0.37554  -0.37376
 Alpha  occ. eigenvalues --   -0.36556  -0.35933  -0.35500  -0.35063  -0.34202
 Alpha  occ. eigenvalues --   -0.33823  -0.32204  -0.30491  -0.29896  -0.29571
 Alpha  occ. eigenvalues --   -0.29451  -0.29028  -0.28756  -0.28214  -0.27145
 Alpha  occ. eigenvalues --   -0.26462  -0.25942  -0.23902  -0.22643  -0.22454
 Alpha  occ. eigenvalues --   -0.19109
 Alpha virt. eigenvalues --   -0.05113  -0.03298  -0.03178  -0.01958  -0.01229
 Alpha virt. eigenvalues --   -0.00750   0.02139   0.03709   0.04867   0.05555
 Alpha virt. eigenvalues --    0.05620   0.06083   0.06380   0.06691   0.07210
 Alpha virt. eigenvalues --    0.07563   0.07969   0.08682   0.09098   0.09278
 Alpha virt. eigenvalues --    0.09545   0.09723   0.10100   0.10675   0.11006
 Alpha virt. eigenvalues --    0.11246   0.11884   0.12044   0.12320   0.12654
 Alpha virt. eigenvalues --    0.12966   0.13301   0.13315   0.13675   0.13871
 Alpha virt. eigenvalues --    0.13952   0.14060   0.15087   0.15218   0.15332
 Alpha virt. eigenvalues --    0.15644   0.15872   0.16323   0.16504   0.16564
 Alpha virt. eigenvalues --    0.16985   0.17522   0.17830   0.17959   0.18100
 Alpha virt. eigenvalues --    0.18639   0.19035   0.19136   0.19627   0.20186
 Alpha virt. eigenvalues --    0.20624   0.20765   0.21390   0.22099   0.22417
 Alpha virt. eigenvalues --    0.22521   0.22783   0.22921   0.23178   0.23261
 Alpha virt. eigenvalues --    0.23371   0.23662   0.23868   0.24160   0.24322
 Alpha virt. eigenvalues --    0.24946   0.25125   0.25598   0.26179   0.27253
 Alpha virt. eigenvalues --    0.27406   0.28254   0.28390   0.28780   0.29171
 Alpha virt. eigenvalues --    0.29376   0.30088   0.30348   0.31416   0.31612
 Alpha virt. eigenvalues --    0.32004   0.32384   0.32781   0.33959   0.34238
 Alpha virt. eigenvalues --    0.35155   0.36013   0.36584   0.37447   0.37966
 Alpha virt. eigenvalues --    0.38184   0.38925   0.39284   0.40076   0.40947
 Alpha virt. eigenvalues --    0.41311   0.41456   0.42034   0.42232   0.42717
 Alpha virt. eigenvalues --    0.42750   0.43408   0.43747   0.43994   0.44462
 Alpha virt. eigenvalues --    0.44590   0.45078   0.45701   0.45927   0.46194
 Alpha virt. eigenvalues --    0.46397   0.46643   0.47088   0.47593   0.48476
 Alpha virt. eigenvalues --    0.48657   0.48866   0.49165   0.49686   0.49920
 Alpha virt. eigenvalues --    0.50312   0.50541   0.51522   0.51994   0.52156
 Alpha virt. eigenvalues --    0.52621   0.52959   0.53601   0.54219   0.54837
 Alpha virt. eigenvalues --    0.55056   0.55451   0.55720   0.56096   0.57324
 Alpha virt. eigenvalues --    0.58221   0.58688   0.58884   0.59062   0.59757
 Alpha virt. eigenvalues --    0.60331   0.60608   0.61378   0.61859   0.62111
 Alpha virt. eigenvalues --    0.62667   0.62740   0.63371   0.64209   0.64283
 Alpha virt. eigenvalues --    0.64855   0.64919   0.65346   0.65619   0.66066
 Alpha virt. eigenvalues --    0.66350   0.66746   0.66960   0.67085   0.67335
 Alpha virt. eigenvalues --    0.67453   0.67698   0.67974   0.68473   0.68770
 Alpha virt. eigenvalues --    0.68832   0.69118   0.69205   0.69438   0.69865
 Alpha virt. eigenvalues --    0.70099   0.70140   0.70567   0.70901   0.71183
 Alpha virt. eigenvalues --    0.71529   0.71759   0.71795   0.72258   0.72480
 Alpha virt. eigenvalues --    0.72645   0.72966   0.72990   0.73304   0.73824
 Alpha virt. eigenvalues --    0.73922   0.74107   0.74487   0.74629   0.75010
 Alpha virt. eigenvalues --    0.75259   0.75593   0.75899   0.75978   0.76299
 Alpha virt. eigenvalues --    0.76339   0.76792   0.76991   0.77344   0.77497
 Alpha virt. eigenvalues --    0.77886   0.78250   0.78631   0.78986   0.79135
 Alpha virt. eigenvalues --    0.79838   0.79999   0.80675   0.81120   0.81383
 Alpha virt. eigenvalues --    0.81629   0.82286   0.82711   0.82986   0.83033
 Alpha virt. eigenvalues --    0.83615   0.84193   0.84456   0.84704   0.85050
 Alpha virt. eigenvalues --    0.85446   0.86256   0.86732   0.86815   0.87627
 Alpha virt. eigenvalues --    0.88278   0.88580   0.89232   0.89584   0.89897
 Alpha virt. eigenvalues --    0.90530   0.90773   0.91040   0.91363   0.92373
 Alpha virt. eigenvalues --    0.92763   0.93551   0.94167   0.94707   0.95527
 Alpha virt. eigenvalues --    0.95825   0.96165   0.96651   0.97021   0.97877
 Alpha virt. eigenvalues --    0.98903   0.99782   1.00991   1.01869   1.02550
 Alpha virt. eigenvalues --    1.02678   1.04456   1.05325   1.06476   1.07037
 Alpha virt. eigenvalues --    1.07303   1.09163   1.09512   1.11137   1.11458
 Alpha virt. eigenvalues --    1.11977   1.12313   1.12683   1.12890   1.13189
 Alpha virt. eigenvalues --    1.14207   1.14816   1.15155   1.15589   1.16048
 Alpha virt. eigenvalues --    1.16558   1.16844   1.18145   1.18850   1.19537
 Alpha virt. eigenvalues --    1.20528   1.21696   1.22063   1.22719   1.23265
 Alpha virt. eigenvalues --    1.24032   1.24337   1.24977   1.25535   1.26002
 Alpha virt. eigenvalues --    1.26240   1.26593   1.27592   1.28403   1.29901
 Alpha virt. eigenvalues --    1.30581   1.31576   1.32733   1.33384   1.34298
 Alpha virt. eigenvalues --    1.34851   1.35552   1.35796   1.36820   1.37912
 Alpha virt. eigenvalues --    1.38673   1.39549   1.39614   1.40450   1.41081
 Alpha virt. eigenvalues --    1.42509   1.43972   1.44569   1.45313   1.45607
 Alpha virt. eigenvalues --    1.46129   1.46884   1.47122   1.47836   1.48665
 Alpha virt. eigenvalues --    1.48787   1.49439   1.49766   1.49992   1.50314
 Alpha virt. eigenvalues --    1.50675   1.51770   1.52698   1.54319   1.56281
 Alpha virt. eigenvalues --    1.59720   1.60611   1.61079   1.62324   1.64129
 Alpha virt. eigenvalues --    1.64982   1.66588   1.67782   1.69805   1.70174
 Alpha virt. eigenvalues --    1.72419   1.72885   1.73420   1.73930   1.74432
 Alpha virt. eigenvalues --    1.75149   1.76432   1.77021   1.78520   1.79363
 Alpha virt. eigenvalues --    1.81120   1.81483   1.82310   1.84637   1.85234
 Alpha virt. eigenvalues --    1.86176   1.86384   1.86943   1.87355   1.87673
 Alpha virt. eigenvalues --    1.87986   1.88892   1.89084   1.89560   1.90080
 Alpha virt. eigenvalues --    1.90298   1.90938   1.91160   1.91800   1.92069
 Alpha virt. eigenvalues --    1.92317   1.93184   1.93531   1.93855   1.94402
 Alpha virt. eigenvalues --    1.94663   1.95360   1.96156   1.96673   1.97444
 Alpha virt. eigenvalues --    1.97708   1.98460   1.99306   1.99570   2.00234
 Alpha virt. eigenvalues --    2.00855   2.00859   2.01183   2.02640   2.03237
 Alpha virt. eigenvalues --    2.04169   2.04580   2.04630   2.05640   2.06169
 Alpha virt. eigenvalues --    2.06396   2.07017   2.07375   2.08630   2.08809
 Alpha virt. eigenvalues --    2.09240   2.09934   2.11687   2.12318   2.13135
 Alpha virt. eigenvalues --    2.14065   2.15397   2.15697   2.15833   2.16709
 Alpha virt. eigenvalues --    2.17237   2.17663   2.18134   2.18780   2.19089
 Alpha virt. eigenvalues --    2.19732   2.19875   2.21037   2.21334   2.21798
 Alpha virt. eigenvalues --    2.22767   2.23264   2.23326   2.23744   2.24211
 Alpha virt. eigenvalues --    2.25446   2.26065   2.27872   2.28934   2.29312
 Alpha virt. eigenvalues --    2.29695   2.29999   2.30431   2.30883   2.31870
 Alpha virt. eigenvalues --    2.33647   2.34442   2.35044   2.36996   2.38129
 Alpha virt. eigenvalues --    2.43251   2.44662   2.45983   2.47154   2.47285
 Alpha virt. eigenvalues --    2.47655   2.47805   2.48436   2.48633   2.48735
 Alpha virt. eigenvalues --    2.49619   2.50050   2.50490   2.50696   2.50839
 Alpha virt. eigenvalues --    2.51672   2.53714   2.55234   2.55703   2.56098
 Alpha virt. eigenvalues --    2.60973   2.63061   2.63543   2.64403   2.66818
 Alpha virt. eigenvalues --    2.68503   2.69022   2.69262   2.69551   2.70558
 Alpha virt. eigenvalues --    2.70927   2.71175   2.71568   2.73476   2.73938
 Alpha virt. eigenvalues --    2.74437   2.75288   2.75595   2.77217   2.79241
 Alpha virt. eigenvalues --    2.88021   2.88376   2.91088   2.92891   2.96254
 Alpha virt. eigenvalues --    2.98536   2.99746   3.01381   3.02099   3.02638
 Alpha virt. eigenvalues --    3.04324   3.05060   3.05136   3.05704   3.05819
 Alpha virt. eigenvalues --    3.06592   3.07123   3.07285   3.07841   3.08288
 Alpha virt. eigenvalues --    3.13135   3.13420   3.19421   3.20083   3.25272
 Alpha virt. eigenvalues --    3.26447   3.32473   3.33739   3.44749   3.45651
 Alpha virt. eigenvalues --    3.55793   3.56486   3.60592   3.61512   3.69721
 Alpha virt. eigenvalues --    3.70556   3.86481   3.87187   3.88945   3.89851
          Condensed to atoms (all electrons):
 Mulliken charges:
               1
     1  C   -0.107184
     2  C   -0.086978
     3  C   -0.065290
     4  C   -0.079973
     5  C   -0.092107
     6  H    0.141609
     7  H    0.107687
     8  H    0.119437
     9  H    0.117156
    10  H    0.115585
    11  Fe  -0.222002
    12  C   -0.099671
    13  C   -0.042469
    14  C   -0.180152
    15  C   -0.093629
    16  C   -0.037062
    17  H    0.110164
    18  H    0.123544
    19  H    0.113175
    20  C   -0.320359
    21  H    0.153941
    22  P    0.424819
    23  C   -0.341148
    24  H    0.154206
    25  H    0.150773
    26  H    0.139549
    27  P    0.341273
    28  C   -0.419811
    29  C   -0.427893
    30  C   -0.294740
    31  H    0.153590
    32  H    0.111121
    33  H    0.133542
    34  C   -0.291754
    35  H    0.120221
    36  H    0.142558
    37  H    0.145863
    38  C   -0.343782
    39  H    0.118416
    40  H    0.206442
    41  H    0.152928
    42  C   -0.317145
    43  H    0.141768
    44  H    0.126084
    45  H    0.151268
    46  C   -0.271969
    47  H    0.131260
    48  H    0.129387
    49  H    0.117859
    50  C   -0.289199
    51  H    0.111904
    52  H    0.134220
    53  H    0.140681
    54  C   -0.123405
    55  C   -0.126306
    56  C   -0.112870
    57  C   -0.104094
    58  H    0.128377
    59  C   -0.114189
    60  H    0.128715
    61  C   -0.125692
    62  H    0.111479
    63  H    0.112672
    64  C   -0.113157
    65  C   -0.154496
    66  C   -0.153966
    67  C   -0.098284
    68  H    0.119204
    69  C   -0.098421
    70  H    0.133208
    71  C   -0.123012
    72  H    0.106625
    73  H    0.105244
    74  C    0.601173
    75  F   -0.176532
    76  F   -0.180472
    77  F   -0.181906
    78  C    0.609952
    79  F   -0.176204
    80  F   -0.175761
    81  F   -0.175594
 Sum of Mulliken charges =  -0.00000
 Mulliken charges with hydrogens summed into heavy atoms:
               1
     1  C    0.034425
     2  C    0.020710
     3  C    0.054147
     4  C    0.037183
     5  C    0.023479
    11  Fe  -0.222002
    12  C    0.010493
    13  C   -0.042469
    14  C   -0.180152
    15  C    0.029915
    16  C    0.076113
    20  C   -0.166418
    22  P    0.424819
    23  C    0.103379
    27  P    0.341273
    28  C   -0.419811
    29  C   -0.427893
    30  C    0.103513
    34  C    0.116888
    38  C    0.134004
    42  C    0.101975
    46  C    0.106538
    50  C    0.097606
    54  C   -0.123405
    55  C    0.002072
    56  C    0.015845
    57  C    0.007385
    59  C   -0.001517
    61  C   -0.125692
    64  C   -0.113157
    65  C   -0.035292
    66  C   -0.020759
    67  C    0.008341
    69  C    0.006822
    71  C   -0.123012
    74  C    0.601173
    75  F   -0.176532
    76  F   -0.180472
    77  F   -0.181906
    78  C    0.609952
    79  F   -0.176204
    80  F   -0.175761
    81  F   -0.175594
 Electronic spatial extent (au):  <R**2>=          29517.3282
 Charge=             -0.0000 electrons
 Dipole moment (field-independent basis, Debye):
    X=             -1.4979    Y=              3.9795    Z=             -1.0858  Tot=              4.3885
 Quadrupole moment (field-independent basis, Debye-Ang):
   XX=           -275.7737   YY=           -281.2550   ZZ=           -293.6931
   XY=             -0.8578   XZ=            -16.1085   YZ=              5.1224
 Traceless Quadrupole moment (field-independent basis, Debye-Ang):
   XX=              7.8002   YY=              2.3189   ZZ=            -10.1192
   XY=             -0.8578   XZ=            -16.1085   YZ=              5.1224
 Octapole moment (field-independent basis, Debye-Ang**2):
  XXX=            498.9361  YYY=            677.5480  ZZZ=           -487.2872  XYY=            163.6571
  XXY=            239.9415  XXZ=            -93.2607  XZZ=            171.3150  YZZ=            351.9531
  YYZ=           -150.8395  XYZ=             46.5181
 Hexadecapole moment (field-independent basis, Debye-Ang**3):
 XXXX=          -8517.0740 YYYY=         -15261.2110 ZZZZ=         -13725.9397 XXXY=          -1567.5538
 XXXZ=          -1240.2716 YYYX=          -1517.0223 YYYZ=           1291.6731 ZZZX=          -1214.1259
 ZZZY=           1784.6446 XXYY=          -3863.6972 XXZZ=          -3655.7095 YYZZ=          -5334.1792
 XXYZ=            378.3444 YYXZ=           -503.8516 ZZXY=           -492.8480
 N-N= 6.821727038705D+03 E-N=-2.274329884644D+04  KE= 3.839309568704D+03
 No NMR shielding tensors so no spin-rotation constants.
 Leave Link  601 at Fri Sep 29 19:34:31 2023, MaxMem=  4026531840 cpu:               4.9 elap:               0.4
 (Enter /sw/arch/RHEL8/EB_production/2022/software/Gaussian/g16.c02/l607.exe)
 ******************************Gaussian NBO Version 3.1******************************
             N A T U R A L   A T O M I C   O R B I T A L   A N D
          N A T U R A L   B O N D   O R B I T A L   A N A L Y S I S
 ******************************Gaussian NBO Version 3.1******************************
       /RESON  / : Allow strongly delocalized NBO set

 Analyzing the SCF density

 Job title: Cisa                                                            

 Storage needed:   1473708 in NPA,   1946337 in NBO (4026497253 available)


 NATURAL POPULATIONS:  Natural atomic orbital occupancies 
                                                          
   NAO  Atom  No  lang   Type(AO)    Occupancy      Energy
 ----------------------------------------------------------
     1    C    1  S      Cor( 1S)     1.99870     -10.10813
     2    C    1  S      Val( 2S)     0.94789      -0.16675
     3    C    1  S      Ryd( 3S)     0.00314       0.84003
     4    C    1  px     Val( 2p)     1.13641      -0.09377
     5    C    1  px     Ryd( 3p)     0.00381       0.84461
     6    C    1  py     Val( 2p)     1.07264      -0.07386
     7    C    1  py     Ryd( 3p)     0.00631       0.78395
     8    C    1  pz     Val( 2p)     1.05733      -0.09114
     9    C    1  pz     Ryd( 3p)     0.00622       0.79812
    10    C    1  dxy    Ryd( 3d)     0.00098       2.11360
    11    C    1  dxz    Ryd( 3d)     0.00084       2.19817
    12    C    1  dyz    Ryd( 3d)     0.00081       2.20184
    13    C    1  dx2y2  Ryd( 3d)     0.00069       2.20168
    14    C    1  dz2    Ryd( 3d)     0.00094       2.11596
 
    15    C    2  S      Cor( 1S)     1.99868     -10.10980
    16    C    2  S      Val( 2S)     0.94860      -0.16939
    17    C    2  S      Ryd( 3S)     0.00305       0.82979
    18    C    2  px     Val( 2p)     1.03739      -0.09532
    19    C    2  px     Ryd( 3p)     0.00484       0.66775
    20    C    2  py     Val( 2p)     1.15807      -0.08636
    21    C    2  py     Ryd( 3p)     0.00599       0.97565
    22    C    2  pz     Val( 2p)     1.07778      -0.08498
    23    C    2  pz     Ryd( 3p)     0.00457       0.68794
    24    C    2  dxy    Ryd( 3d)     0.00076       2.26050
    25    C    2  dxz    Ryd( 3d)     0.00052       2.20867
    26    C    2  dyz    Ryd( 3d)     0.00096       2.19994
    27    C    2  dx2y2  Ryd( 3d)     0.00108       2.08850
    28    C    2  dz2    Ryd( 3d)     0.00093       2.05740
 
    29    C    3  S      Cor( 1S)     1.99866     -10.11148
    30    C    3  S      Val( 2S)     0.95157      -0.17269
    31    C    3  S      Ryd( 3S)     0.00269       0.81462
    32    C    3  px     Val( 2p)     1.05780      -0.11071
    33    C    3  px     Ryd( 3p)     0.00634       0.73500
    34    C    3  py     Val( 2p)     1.03703      -0.06880
    35    C    3  py     Ryd( 3p)     0.00573       0.61408
    36    C    3  pz     Val( 2p)     1.16528      -0.08918
    37    C    3  pz     Ryd( 3p)     0.00373       0.86938
    38    C    3  dxy    Ryd( 3d)     0.00094       2.14375
    39    C    3  dxz    Ryd( 3d)     0.00096       2.14195
    40    C    3  dyz    Ryd( 3d)     0.00083       2.19698
    41    C    3  dx2y2  Ryd( 3d)     0.00082       2.16083
    42    C    3  dz2    Ryd( 3d)     0.00075       2.12022
 
    43    C    4  S      Cor( 1S)     1.99866     -10.11196
    44    C    4  S      Val( 2S)     0.95202      -0.17338
    45    C    4  S      Ryd( 3S)     0.00276       0.80984
    46    C    4  px     Val( 2p)     1.03759      -0.10528
    47    C    4  px     Ryd( 3p)     0.00586       0.66773
    48    C    4  py     Val( 2p)     1.18607      -0.07843
    49    C    4  py     Ryd( 3p)     0.00487       0.94433
    50    C    4  pz     Val( 2p)     1.04016      -0.08651
    51    C    4  pz     Ryd( 3p)     0.00507       0.60719
    52    C    4  dxy    Ryd( 3d)     0.00098       2.11682
    53    C    4  dxz    Ryd( 3d)     0.00064       2.23417
    54    C    4  dyz    Ryd( 3d)     0.00072       2.22481
    55    C    4  dx2y2  Ryd( 3d)     0.00090       2.18163
    56    C    4  dz2    Ryd( 3d)     0.00104       2.00177
 
    57    C    5  S      Cor( 1S)     1.99869     -10.11081
    58    C    5  S      Val( 2S)     0.94885      -0.16998
    59    C    5  S      Ryd( 3S)     0.00304       0.83588
    60    C    5  px     Val( 2p)     1.07023      -0.09595
    61    C    5  px     Ryd( 3p)     0.00451       0.67489
    62    C    5  py     Val( 2p)     1.11426      -0.07328
    63    C    5  py     Ryd( 3p)     0.00519       0.78522
    64    C    5  pz     Val( 2p)     1.08872      -0.10011
    65    C    5  pz     Ryd( 3p)     0.00651       0.84200
    66    C    5  dxy    Ryd( 3d)     0.00070       2.14132
    67    C    5  dxz    Ryd( 3d)     0.00075       2.23096
    68    C    5  dyz    Ryd( 3d)     0.00108       2.12309
    69    C    5  dx2y2  Ryd( 3d)     0.00086       2.14531
    70    C    5  dz2    Ryd( 3d)     0.00086       2.14481
 
    71    H    6  S      Val( 1S)     0.74964       0.11451
    72    H    6  S      Ryd( 2S)     0.00373       0.53486
 
    73    H    7  S      Val( 1S)     0.75483       0.10024
    74    H    7  S      Ryd( 2S)     0.00148       0.39773
 
    75    H    8  S      Val( 1S)     0.75129       0.09972
    76    H    8  S      Ryd( 2S)     0.00114       0.35262
 
    77    H    9  S      Val( 1S)     0.75201       0.09892
    78    H    9  S      Ryd( 2S)     0.00117       0.34902
 
    79    H   10  S      Val( 1S)     0.75446       0.09821
    80    H   10  S      Ryd( 2S)     0.00147       0.37931
 
    81   Fe   11  S      Cor( 1S)     2.00000    -236.22721
    82   Fe   11  S      Cor( 2S)     1.99999     -48.65011
    83   Fe   11  S      Cor( 3S)     1.99694      -4.90367
    84   Fe   11  S      Val( 4S)     0.14027       0.18202
    85   Fe   11  S      Ryd( 5S)     0.00627       0.25788
    86   Fe   11  px     Cor( 2p)     1.99999     -25.76553
    87   Fe   11  px     Cor( 3p)     1.99815      -2.40302
    88   Fe   11  px     Val( 4p)     0.21296       0.39747
    89   Fe   11  py     Cor( 2p)     1.99999     -25.75786
    90   Fe   11  py     Cor( 3p)     1.99917      -2.39293
    91   Fe   11  py     Val( 4p)     0.21111       0.29496
    92   Fe   11  pz     Cor( 2p)     1.99999     -25.76402
    93   Fe   11  pz     Cor( 3p)     1.99864      -2.40261
    94   Fe   11  pz     Val( 4p)     0.22361       0.36650
    95   Fe   11  dxy    Val( 3d)     1.42181      -0.18808
    96   Fe   11  dxy    Ryd( 4d)     0.00214       1.36279
    97   Fe   11  dxz    Val( 3d)     1.80018      -0.24077
    98   Fe   11  dxz    Ryd( 4d)     0.00272       1.27159
    99   Fe   11  dyz    Val( 3d)     1.48615      -0.19092
   100   Fe   11  dyz    Ryd( 4d)     0.00204       1.32498
   101   Fe   11  dx2y2  Val( 3d)     1.38973      -0.18480
   102   Fe   11  dx2y2  Ryd( 4d)     0.00201       1.34983
   103   Fe   11  dz2    Val( 3d)     1.07717      -0.15991
   104   Fe   11  dz2    Ryd( 4d)     0.00255       1.37504
 
   105    C   12  S      Cor( 1S)     1.99864     -10.10778
   106    C   12  S      Val( 2S)     0.93069      -0.16085
   107    C   12  S      Ryd( 3S)     0.00265       0.84433
   108    C   12  px     Val( 2p)     1.07143      -0.09311
   109    C   12  px     Ryd( 3p)     0.00403       0.72696
   110    C   12  py     Val( 2p)     1.16701      -0.10203
   111    C   12  py     Ryd( 3p)     0.00619       1.01410
   112    C   12  pz     Val( 2p)     1.05223      -0.09544
   113    C   12  pz     Ryd( 3p)     0.00460       0.72600
   114    C   12  dxy    Ryd( 3d)     0.00088       2.27863
   115    C   12  dxz    Ryd( 3d)     0.00050       2.24940
   116    C   12  dyz    Ryd( 3d)     0.00083       2.26109
   117    C   12  dx2y2  Ryd( 3d)     0.00092       2.11718
   118    C   12  dz2    Ryd( 3d)     0.00102       2.03631
 
   119    C   13  S      Cor( 1S)     1.99862     -10.11502
   120    C   13  S      Val( 2S)     0.82835      -0.12544
   121    C   13  S      Ryd( 3S)     0.00492       0.95902
   122    C   13  px     Val( 2p)     1.03713      -0.12010
   123    C   13  px     Ryd( 3p)     0.00903       0.99157
   124    C   13  py     Val( 2p)     1.05940      -0.09525
   125    C   13  py     Ryd( 3p)     0.00774       0.92788
   126    C   13  pz     Val( 2p)     1.10277      -0.10734
   127    C   13  pz     Ryd( 3p)     0.00434       0.99562
   128    C   13  dxy    Ryd( 3d)     0.00076       2.21675
   129    C   13  dxz    Ryd( 3d)     0.00080       2.29502
   130    C   13  dyz    Ryd( 3d)     0.00103       2.24714
   131    C   13  dx2y2  Ryd( 3d)     0.00101       2.19682
   132    C   13  dz2    Ryd( 3d)     0.00087       2.18099
 
   133    C   14  S      Cor( 1S)     1.99856     -10.11272
   134    C   14  S      Val( 2S)     0.93010      -0.19917
   135    C   14  S      Ryd( 3S)     0.00411       0.92937
   136    C   14  px     Val( 2p)     1.13985      -0.18106
   137    C   14  px     Ryd( 3p)     0.00767       1.00178
   138    C   14  py     Val( 2p)     1.17974      -0.14662
   139    C   14  py     Ryd( 3p)     0.00776       0.95292
   140    C   14  pz     Val( 2p)     1.12405      -0.12793
   141    C   14  pz     Ryd( 3p)     0.00605       0.82409
   142    C   14  dxy    Ryd( 3d)     0.00121       2.11656
   143    C   14  dxz    Ryd( 3d)     0.00062       2.26968
   144    C   14  dyz    Ryd( 3d)     0.00067       2.21631
   145    C   14  dx2y2  Ryd( 3d)     0.00101       2.26950
   146    C   14  dz2    Ryd( 3d)     0.00108       2.04725
 
   147    C   15  S      Cor( 1S)     1.99865     -10.11081
   148    C   15  S      Val( 2S)     0.93399      -0.16495
   149    C   15  S      Ryd( 3S)     0.00322       0.83542
   150    C   15  px     Val( 2p)     1.03536      -0.09582
   151    C   15  px     Ryd( 3p)     0.00528       0.68845
   152    C   15  py     Val( 2p)     1.16444      -0.08547
   153    C   15  py     Ryd( 3p)     0.00625       0.91164
   154    C   15  pz     Val( 2p)     1.06891      -0.10871
   155    C   15  pz     Ryd( 3p)     0.00702       0.76876
   156    C   15  dxy    Ryd( 3d)     0.00067       2.22920
   157    C   15  dxz    Ryd( 3d)     0.00065       2.27954
   158    C   15  dyz    Ryd( 3d)     0.00109       2.12273
   159    C   15  dx2y2  Ryd( 3d)     0.00090       2.13653
   160    C   15  dz2    Ryd( 3d)     0.00083       2.11634
 
   161    C   16  S      Cor( 1S)     1.99866     -10.11339
   162    C   16  S      Val( 2S)     0.94272      -0.16894
   163    C   16  S      Ryd( 3S)     0.00251       0.83568
   164    C   16  px     Val( 2p)     1.15812      -0.09622
   165    C   16  px     Ryd( 3p)     0.00433       0.86597
   166    C   16  py     Val( 2p)     1.03867      -0.07429
   167    C   16  py     Ryd( 3p)     0.00619       0.62954
   168    C   16  pz     Val( 2p)     1.06171      -0.10639
   169    C   16  pz     Ryd( 3p)     0.00627       0.73955
   170    C   16  dxy    Ryd( 3d)     0.00089       2.17242
   171    C   16  dxz    Ryd( 3d)     0.00091       2.16474
   172    C   16  dyz    Ryd( 3d)     0.00085       2.19247
   173    C   16  dx2y2  Ryd( 3d)     0.00074       2.16119
   174    C   16  dz2    Ryd( 3d)     0.00090       2.11212
 
   175    H   17  S      Val( 1S)     0.74284       0.09765
   176    H   17  S      Ryd( 2S)     0.00121       0.39771
 
   177    H   18  S      Val( 1S)     0.73874       0.10519
   178    H   18  S      Ryd( 2S)     0.00133       0.39387
 
   179    H   19  S      Val( 1S)     0.74811       0.09760
   180    H   19  S      Ryd( 2S)     0.00117       0.34742
 
   181    C   20  S      Cor( 1S)     1.99901     -10.12416
   182    C   20  S      Val( 2S)     0.98919      -0.23371
   183    C   20  S      Ryd( 3S)     0.00490       1.02778
   184    C   20  px     Val( 2p)     1.18870      -0.15844
   185    C   20  px     Ryd( 3p)     0.00498       0.78393
   186    C   20  py     Val( 2p)     1.16998      -0.10959
   187    C   20  py     Ryd( 3p)     0.00490       0.82604
   188    C   20  pz     Val( 2p)     1.15144      -0.10505
   189    C   20  pz     Ryd( 3p)     0.00365       0.77520
   190    C   20  dxy    Ryd( 3d)     0.00072       2.08765
   191    C   20  dxz    Ryd( 3d)     0.00072       2.16257
   192    C   20  dyz    Ryd( 3d)     0.00108       2.25201
   193    C   20  dx2y2  Ryd( 3d)     0.00126       2.11939
   194    C   20  dz2    Ryd( 3d)     0.00065       2.01112
 
   195    H   21  S      Val( 1S)     0.72915       0.09278
   196    H   21  S      Ryd( 2S)     0.00366       0.56977
 
   197    P   22  S      Cor( 1S)     1.99999     -76.26508
   198    P   22  S      Cor( 2S)     1.99855      -7.32905
   199    P   22  S      Val( 3S)     1.25359      -0.39263
   200    P   22  S      Ryd( 4S)     0.00452       0.73823
   201    P   22  px     Cor( 2p)     1.99983      -4.74436
   202    P   22  px     Val( 3p)     1.24433      -0.10313
   203    P   22  px     Ryd( 4p)     0.00581       0.78498
   204    P   22  py     Cor( 2p)     1.99977      -4.74606
   205    P   22  py     Val( 3p)     0.83370      -0.05201
   206    P   22  py     Ryd( 4p)     0.00544       0.83175
   207    P   22  pz     Cor( 2p)     1.99973      -4.74675
   208    P   22  pz     Val( 3p)     0.72665      -0.04374
   209    P   22  pz     Ryd( 4p)     0.00511       0.82497
   210    P   22  dxy    Ryd( 3d)     0.00496       1.14742
   211    P   22  dxz    Ryd( 3d)     0.00417       0.96163
   212    P   22  dyz    Ryd( 3d)     0.00769       1.15154
   213    P   22  dx2y2  Ryd( 3d)     0.00377       0.95517
   214    P   22  dz2    Ryd( 3d)     0.00366       1.09034
 
   215    C   23  S      Cor( 1S)     1.99926     -10.10233
   216    C   23  S      Val( 2S)     1.06265      -0.22953
   217    C   23  S      Ryd( 3S)     0.00092       0.95314
   218    C   23  px     Val( 2p)     1.20494      -0.08753
   219    C   23  px     Ryd( 3p)     0.00366       0.74253
   220    C   23  py     Val( 2p)     1.14326      -0.08024
   221    C   23  py     Ryd( 3p)     0.00232       0.60791
   222    C   23  pz     Val( 2p)     1.20727      -0.08542
   223    C   23  pz     Ryd( 3p)     0.00330       0.74781
   224    C   23  dxy    Ryd( 3d)     0.00033       1.99985
   225    C   23  dxz    Ryd( 3d)     0.00035       1.99952
   226    C   23  dyz    Ryd( 3d)     0.00076       2.13332
   227    C   23  dx2y2  Ryd( 3d)     0.00088       2.14980
   228    C   23  dz2    Ryd( 3d)     0.00061       2.05714
 
   229    H   24  S      Val( 1S)     0.77796       0.08161
   230    H   24  S      Ryd( 2S)     0.00129       0.48342
 
   231    H   25  S      Val( 1S)     0.77741       0.08370
   232    H   25  S      Ryd( 2S)     0.00300       0.52618
 
   233    H   26  S      Val( 1S)     0.77799       0.07727
   234    H   26  S      Ryd( 2S)     0.00141       0.50282
 
   235    P   27  S      Cor( 1S)     1.99999     -76.30896
   236    P   27  S      Cor( 2S)     1.99890      -7.25195
   237    P   27  S      Val( 3S)     1.34854      -0.42170
   238    P   27  S      Ryd( 4S)     0.00478       0.71638
   239    P   27  px     Cor( 2p)     1.99979      -4.72145
   240    P   27  px     Val( 3p)     0.80211      -0.05360
   241    P   27  px     Ryd( 4p)     0.00407       0.85317
   242    P   27  py     Cor( 2p)     1.99985      -4.71901
   243    P   27  py     Val( 3p)     1.34959      -0.10968
   244    P   27  py     Ryd( 4p)     0.00524       0.87808
   245    P   27  pz     Cor( 2p)     1.99976      -4.72098
   246    P   27  pz     Val( 3p)     0.69632      -0.03276
   247    P   27  pz     Ryd( 4p)     0.00312       0.87489
   248    P   27  dxy    Ryd( 3d)     0.00232       0.95779
   249    P   27  dxz    Ryd( 3d)     0.00346       0.97467
   250    P   27  dyz    Ryd( 3d)     0.00665       1.05947
   251    P   27  dx2y2  Ryd( 3d)     0.00484       1.02935
   252    P   27  dz2    Ryd( 3d)     0.00392       0.98215
 
   253    C   28  S      Cor( 1S)     1.99895     -10.12830
   254    C   28  S      Val( 2S)     0.95219      -0.23533
   255    C   28  S      Ryd( 3S)     0.00345       0.95616
   256    C   28  px     Val( 2p)     1.11115      -0.12119
   257    C   28  px     Ryd( 3p)     0.00392       0.80195
   258    C   28  py     Val( 2p)     1.10011      -0.11912
   259    C   28  py     Ryd( 3p)     0.00395       0.78474
   260    C   28  pz     Val( 2p)     1.15493      -0.14392
   261    C   28  pz     Ryd( 3p)     0.00380       0.79486
   262    C   28  dxy    Ryd( 3d)     0.00087       2.00302
   263    C   28  dxz    Ryd( 3d)     0.00098       2.01074
   264    C   28  dyz    Ryd( 3d)     0.00124       2.09915
   265    C   28  dx2y2  Ryd( 3d)     0.00114       2.30744
   266    C   28  dz2    Ryd( 3d)     0.00090       2.15701
 
   267    C   29  S      Cor( 1S)     1.99893     -10.12404
   268    C   29  S      Val( 2S)     0.94897      -0.23019
   269    C   29  S      Ryd( 3S)     0.00411       0.98275
   270    C   29  px     Val( 2p)     1.08634      -0.10662
   271    C   29  px     Ryd( 3p)     0.00310       0.80382
   272    C   29  py     Val( 2p)     1.10766      -0.12024
   273    C   29  py     Ryd( 3p)     0.00393       0.79591
   274    C   29  pz     Val( 2p)     1.16965      -0.14755
   275    C   29  pz     Ryd( 3p)     0.00448       0.80467
   276    C   29  dxy    Ryd( 3d)     0.00094       2.22697
   277    C   29  dxz    Ryd( 3d)     0.00064       1.97033
[...]
   450. RY*(   3) C  57                  0.00145     0.67248   
   451. RY*(   4) C  57                  0.00092     0.77296   
   452. RY*(   5) C  57                  0.00068     1.75096   
   453. RY*(   6) C  57                  0.00014     2.31843   
   454. RY*(   7) C  57                  0.00008     2.24489   
   455. RY*(   8) C  57                  0.00002     1.79837   
   456. RY*(   9) C  57                  0.00002     2.11095   
   457. RY*(   1) H  58                  0.00203     0.43198   
   458. RY*(   1) C  59                  0.00671     1.09572   
   459. RY*(   2) C  59                  0.00329     0.74128   
   460. RY*(   3) C  59                  0.00105     0.95879   
   461. RY*(   4) C  59                  0.00091     0.66285   
   462. RY*(   5) C  59                  0.00066     1.55236   
   463. RY*(   6) C  59                  0.00013     2.32554   
   464. RY*(   7) C  59                  0.00007     2.24210   
   465. RY*(   8) C  59                  0.00002     1.81535   
   466. RY*(   9) C  59                  0.00002     2.05922   
   467. RY*(   1) H  60                  0.00203     0.46495   
   468. RY*(   1) C  61                  0.00588     1.16135   
   469. RY*(   2) C  61                  0.00416     0.89256   
   470. RY*(   3) C  61                  0.00276     0.67817   
   471. RY*(   4) C  61                  0.00212     0.54549   
   472. RY*(   5) C  61                  0.00089     1.90612   
   473. RY*(   6) C  61                  0.00036     2.05152   
   474. RY*(   7) C  61                  0.00032     2.11334   
   475. RY*(   8) C  61                  0.00030     2.43114   
   476. RY*(   9) C  61                  0.00005     2.18155   
   477. RY*(   1) H  62                  0.00224     0.32909   
   478. RY*(   1) H  63                  0.00222     0.32197   
   479. RY*(   1) C  64                  0.00656     1.20658   
   480. RY*(   2) C  64                  0.00313     0.92300   
   481. RY*(   3) C  64                  0.00254     0.66390   
   482. RY*(   4) C  64                  0.00164     1.01751   
   483. RY*(   5) C  64                  0.00075     1.90550   
   484. RY*(   6) C  64                  0.00029     1.84643   
   485. RY*(   7) C  64                  0.00026     2.34930   
   486. RY*(   8) C  64                  0.00015     1.88595   
   487. RY*(   9) C  64                  0.00003     2.16934   
   488. RY*(   1) C  65                  0.00708     1.16798   
   489. RY*(   2) C  65                  0.00313     0.75647   
   490. RY*(   3) C  65                  0.00152     0.71215   
   491. RY*(   4) C  65                  0.00099     0.82037   
   492. RY*(   5) C  65                  0.00055     1.69063   
   493. RY*(   6) C  65                  0.00014     2.28275   
   494. RY*(   7) C  65                  0.00007     2.28806   
   495. RY*(   8) C  65                  0.00004     1.84330   
   496. RY*(   9) C  65                  0.00002     2.06963   
   497. RY*(   1) C  66                  0.00714     1.18363   
   498. RY*(   2) C  66                  0.00305     0.78050   
   499. RY*(   3) C  66                  0.00156     0.71159   
   500. RY*(   4) C  66                  0.00102     0.78419   
   501. RY*(   5) C  66                  0.00057     1.75743   
   502. RY*(   6) C  66                  0.00014     2.28261   
   503. RY*(   7) C  66                  0.00007     2.17934   
   504. RY*(   8) C  66                  0.00005     1.94449   
   505. RY*(   9) C  66                  0.00003     2.13201   
   506. RY*(   1) C  67                  0.00684     1.11599   
   507. RY*(   2) C  67                  0.00322     0.73857   
   508. RY*(   3) C  67                  0.00111     1.06639   
   509. RY*(   4) C  67                  0.00097     0.71760   
   510. RY*(   5) C  67                  0.00072     1.38516   
   511. RY*(   6) C  67                  0.00014     2.34009   
   512. RY*(   7) C  67                  0.00007     2.24521   
   513. RY*(   8) C  67                  0.00002     2.06290   
   514. RY*(   9) C  67                  0.00002     1.83455   
   515. RY*(   1) H  68                  0.00210     0.40292   
   516. RY*(   1) C  69                  0.00698     1.10668   
   517. RY*(   2) C  69                  0.00330     0.75022   
   518. RY*(   3) C  69                  0.00114     0.88032   
   519. RY*(   4) C  69                  0.00096     0.79728   
   520. RY*(   5) C  69                  0.00069     1.49315   
   521. RY*(   6) C  69                  0.00013     2.33876   
   522. RY*(   7) C  69                  0.00007     2.26703   
   523. RY*(   8) C  69                  0.00002     2.09932   
   524. RY*(   9) C  69                  0.00002     1.78640   
   525. RY*(   1) H  70                  0.00284     0.53787   
   526. RY*(   1) C  71                  0.00612     1.15784   
   527. RY*(   2) C  71                  0.00402     0.90404   
   528. RY*(   3) C  71                  0.00289     0.65812   
   529. RY*(   4) C  71                  0.00222     0.54384   
   530. RY*(   5) C  71                  0.00086     1.91949   
   531. RY*(   6) C  71                  0.00036     2.08648   
   532. RY*(   7) C  71                  0.00032     2.11213   
   533. RY*(   8) C  71                  0.00030     2.43554   
   534. RY*(   9) C  71                  0.00005     2.19047   
   535. RY*(   1) H  72                  0.00221     0.33223   
   536. RY*(   1) H  73                  0.00222     0.33263   
   537. RY*(   1) C  74                  0.02065     0.81593   
   538. RY*(   2) C  74                  0.01826     0.87606   
   539. RY*(   3) C  74                  0.01419     0.73755   
   540. RY*(   4) C  74                  0.00423     1.86741   
   541. RY*(   5) C  74                  0.00411     1.33748   
   542. RY*(   6) C  74                  0.00400     1.68037   
   543. RY*(   7) C  74                  0.00313     1.94251   
   544. RY*(   8) C  74                  0.00283     2.13002   
   545. RY*(   9) C  74                  0.00055     1.42557   
   546. RY*(   1) F  75                  0.00104     1.77500   
   547. RY*(   2) F  75                  0.00041     1.82987   
   548. RY*(   3) F  75                  0.00024     1.43351   
   549. RY*(   4) F  75                  0.00007     3.07832   
   550. RY*(   5) F  75                  0.00004     1.40196   
   551. RY*(   6) F  75                  0.00001     3.05439   
   552. RY*(   7) F  75                  0.00002     2.95966   
   553. RY*(   8) F  75                  0.00001     3.28958   
   554. RY*(   9) F  75                  0.00001     3.13926   
   555. RY*(   1) F  76                  0.00107     1.81231   
   556. RY*(   2) F  76                  0.00048     1.75020   
   557. RY*(   3) F  76                  0.00022     1.43819   
   558. RY*(   4) F  76                  0.00007     3.10965   
   559. RY*(   5) F  76                  0.00003     1.31288   
   560. RY*(   6) F  76                  0.00004     3.04556   
   561. RY*(   7) F  76                  0.00000     3.07893   
   562. RY*(   8) F  76                  0.00001     3.29239   
   563. RY*(   9) F  76                  0.00001     3.15115   
   564. RY*(   1) F  77                  0.00112     1.76058   
   565. RY*(   2) F  77                  0.00044     1.77670   
   566. RY*(   3) F  77                  0.00023     1.44069   
   567. RY*(   4) F  77                  0.00007     3.11032   
   568. RY*(   5) F  77                  0.00004     1.36394   
   569. RY*(   6) F  77                  0.00003     3.03447   
   570. RY*(   7) F  77                  0.00001     3.16654   
   571. RY*(   8) F  77                  0.00000     3.12953   
   572. RY*(   9) F  77                  0.00001     3.15305   
   573. RY*(   1) C  78                  0.02067     0.80784   
   574. RY*(   2) C  78                  0.01822     0.86258   
   575. RY*(   3) C  78                  0.01408     0.73518   
   576. RY*(   4) C  78                  0.00427     1.89553   
   577. RY*(   5) C  78                  0.00421     1.17529   
   578. RY*(   6) C  78                  0.00404     1.76010   
   579. RY*(   7) C  78                  0.00312     1.94676   
   580. RY*(   8) C  78                  0.00284     2.12042   
   581. RY*(   9) C  78                  0.00054     1.43522   
   582. RY*(   1) F  79                  0.00108     1.75837   
   583. RY*(   2) F  79                  0.00042     1.79239   
   584. RY*(   3) F  79                  0.00024     1.43377   
   585. RY*(   4) F  79                  0.00007     3.07973   
   586. RY*(   5) F  79                  0.00004     1.37193   
   587. RY*(   6) F  79                  0.00002     3.39630   
   588. RY*(   7) F  79                  0.00001     3.02232   
   589. RY*(   8) F  79                  0.00002     3.00212   
   590. RY*(   9) F  79                  0.00000     3.02503   
   591. RY*(   1) F  80                  0.00109     1.75558   
   592. RY*(   2) F  80                  0.00043     1.78717   
   593. RY*(   3) F  80                  0.00024     1.43257   
   594. RY*(   4) F  80                  0.00007     3.08619   
   595. RY*(   5) F  80                  0.00004     1.36437   
   596. RY*(   6) F  80                  0.00002     2.99769   
   597. RY*(   7) F  80                  0.00001     3.11625   
   598. RY*(   8) F  80                  0.00001     3.23670   
   599. RY*(   9) F  80                  0.00001     3.10466   
   600. RY*(   1) F  81                  0.00103     1.80817   
   601. RY*(   2) F  81                  0.00048     1.75302   
   602. RY*(   3) F  81                  0.00023     1.42779   
   603. RY*(   4) F  81                  0.00007     3.10412   
   604. RY*(   5) F  81                  0.00003     3.04824   
   605. RY*(   6) F  81                  0.00003     1.31164   
   606. RY*(   7) F  81                  0.00000     3.10550   
   607. RY*(   8) F  81                  0.00001     3.24391   
   608. RY*(   9) F  81                  0.00001     3.13190   
   619. BD*(   1) C  12 - C  13          0.04620     0.49989   
   620. BD*(   1) C  12 - C  16          0.03126     0.50746   
   621. BD*(   1) C  12 - H  17          0.01670     0.47845   
   622. BD*(   1) C  13 - C  14          0.05590     0.48757   
   623. BD*(   1) C  13 - C  20          0.03533     0.44596   
   624. BD*(   1) C  14 - C  15          0.04602     0.48510   
   625. BD*(   1) C  14 - P  22          0.04140     0.27020   
   626. BD*(   1) C  15 - C  16          0.03450     0.50786   
   627. BD*(   1) C  15 - H  18          0.01693     0.48570   
   628. BD*(   1) C  16 - H  19          0.01600     0.48206   
   629. BD*(   1) C  20 - H  21          0.02093     0.45393   
   630. BD*(   1) C  20 - C  23          0.02196     0.40360   
   631. BD*(   1) C  20 - P  27          0.03930     0.20417   
   632. BD*(   1) P  22 - C  54          0.03799     0.25700   
   633. BD*(   1) P  22 - C  64          0.03472     0.25836   
   634. BD*(   1) C  23 - H  24          0.00773     0.46604   
   635. BD*(   1) C  23 - H  25          0.01338     0.46458   
   636. BD*(   1) C  23 - H  26          0.00944     0.45597   
   637. BD*(   1) P  27 - C  28          0.04730     0.20913   
   638. BD*(   1) P  27 - C  29          0.04754     0.20711   
   639. BD*(   1) C  28 - C  42          0.02176     0.39212   
   640. BD*(   1) C  28 - C  46          0.02176     0.39907   
   641. BD*(   1) C  28 - C  50          0.03072     0.40237   
   642. BD*(   1) C  29 - C  30          0.02928     0.40935   
   643. BD*(   1) C  29 - C  34          0.02185     0.40376   
   644. BD*(   1) C  29 - C  38          0.02279     0.40171   
   645. BD*(   1) C  30 - H  31          0.00839     0.48195   
   646. BD*(   1) C  30 - H  32          0.01373     0.45408   
   647. BD*(   1) C  30 - H  33          0.00754     0.47005   
   648. BD*(   1) C  34 - H  35          0.01142     0.45561   
   649. BD*(   1) C  34 - H  36          0.00822     0.46502   
   650. BD*(   1) C  34 - H  37          0.00844     0.46660   
   651. BD*(   1) C  38 - H  39          0.01172     0.45814   
   652. BD*(   1) C  38 - H  40          0.00752     0.49195   
   653. BD*(   1) C  38 - H  41          0.00757     0.46474   
   654. BD*(   1) C  42 - H  43          0.00837     0.46710   
   655. BD*(   1) C  42 - H  44          0.01116     0.45406   
   656. BD*(   1) C  42 - H  45          0.00863     0.45690   
   657. BD*(   1) C  46 - H  47          0.00790     0.47811   
   658. BD*(   1) C  46 - H  48          0.00759     0.48060   
   659. BD*(   1) C  46 - H  49          0.01032     0.45370   
   660. BD*(   1) C  50 - H  51          0.01351     0.45159   
   661. BD*(   1) C  50 - H  52          0.00853     0.47992   
   662. BD*(   1) C  50 - H  53          0.00791     0.46295   
   663. BD*(   1) C  54 - C  55          0.03232     0.57300   
   664. BD*(   1) C  54 - C  56          0.02662     0.57347   
   665. BD*(   2) C  54 - C  56          0.34177     0.01932  674(v),667(v),441(g),625(v)
                                                    424(g),678(r),633(v)
   666. BD*(   1) C  55 - C  57          0.02066     0.58787   
   667. BD*(   2) C  55 - C  57          0.29381     0.02424  674(v),665(v),678(r),450(g)
                                                    433(g),432(g),452(g),149(r)
   668. BD*(   1) C  55 - H  58          0.01659     0.46866   
   669. BD*(   1) C  56 - C  59          0.01895     0.58320   
   670. BD*(   1) C  56 - H  60          0.01707     0.47258   
   671. BD*(   1) C  57 - C  61          0.02657     0.56989   
   672. BD*(   1) C  57 - H  62          0.01516     0.46443   
   673. BD*(   1) C  59 - C  61          0.02634     0.57170   
   674. BD*(   2) C  59 - C  61          0.35524     0.01988  665(v),667(v),696(v),460(g)
                                                    470(g),694(v),695(v)
   675. BD*(   1) C  59 - H  63          0.01477     0.46529   
   676. BD*(   1) C  61 - C  78          0.06499     0.38040   
   677. BD*(   1) C  64 - C  65          0.02592     0.58063   
   678. BD*(   2) C  64 - C  65          0.37957     0.02487  686(v),683(v),667(r),490(g)
                                                    482(g),665(r),625(v),499(v)
                                                    491(g),510(v)
   679. BD*(   1) C  64 - C  66          0.02550     0.57473   
   680. BD*(   1) C  65 - C  67          0.01898     0.59389   
   681. BD*(   1) C  65 - H  68          0.01659     0.47842   
   682. BD*(   1) C  66 - C  69          0.01869     0.60132   
   683. BD*(   2) C  66 - C  69          0.29647     0.03725  686(v),678(v),499(g),520(g)
                                                    501(g),518(g)
   684. BD*(   1) C  66 - H  70          0.01629     0.48912   
   685. BD*(   1) C  67 - C  71          0.02624     0.58859   
   686. BD*(   2) C  67 - C  71          0.36562     0.03418  683(v),678(v),692(v),508(g)
                                                    528(g),693(v),518(v)
   687. BD*(   1) C  67 - H  72          0.01479     0.47500   
   688. BD*(   1) C  69 - C  71          0.02636     0.58167   
   689. BD*(   1) C  69 - H  73          0.01443     0.47283   
   690. BD*(   1) C  71 - C  74          0.06446     0.39251   
   691. BD*(   1) C  74 - F  75          0.09560     0.25892   
   692. BD*(   1) C  74 - F  76          0.10803     0.25876  693(g),691(g),538(g),543(g)
                                                    686(v)
   693. BD*(   1) C  74 - F  77          0.10040     0.25875  692(g),691(g),538(g),537(g)
                                                    543(g)
   694. BD*(   1) C  78 - F  79          0.09711     0.24917   
   695. BD*(   1) C  78 - F  80          0.09742     0.25025   
   696. BD*(   1) C  78 - F  81          0.10698     0.25000  695(g),574(g),694(g),579(g)
                                                    674(v)
       -------------------------------
              Total Lewis  285.32575  ( 98.0297%)
        Valence non-Lewis    5.09628  (  1.7509%)
        Rydberg non-Lewis    0.63845  (  0.2194%)
       -------------------------------
            Total unit  3  291.06047  (100.0000%)
           Charge unit  3   -0.06047
 Leave Link  607 at Fri Sep 29 19:34:34 2023, MaxMem=  4026531840 cpu:              31.8 elap:               2.9
 (Enter /sw/arch/RHEL8/EB_production/2022/software/Gaussian/g16.c02/l9999.exe)
 Unable to Open any file for archive entry.
 1\1\GINC-TCN1182\SP\RPBE1PBE\def2SVPP\C34H38F6Fe1P2\ADARSH\29-Sep-2023
 \0\\#p pop=nbo pbe1pbe/def2svpp empiricaldispersion=gd3bj integral=gri
 d=ultrafinegrid scf=(xqc,maxconventionalcycles=90) nosymm\\Cisa\\0,1\C
 ,0,-3.56521,-0.90745,-1.31149\C,0,-4.29973,-1.40144,-0.19386\C,0,-5.13
 082,-0.34992,0.28586\C,0,-4.90845,0.79483,-0.5309\C,0,-3.94457,0.44643
 ,-1.52035\H,0,-2.8426,-1.46576,-1.90554\H,0,-4.23933,-2.40414,0.22661\
 H,0,-5.79798,-0.40241,1.14651\H,0,-5.37811,1.77094,-0.4071\H,0,-3.5635
 7,1.10055,-2.30446\Fe,0,-3.16694,0.21016,0.37211\C,0,-2.38651,1.9062,1
 .19459\C,0,-1.36418,1.17252,0.51745\C,0,-1.3028,-0.12778,1.13385\C,0,-
 2.29501,-0.17827,2.16978\C,0,-2.94974,1.08062,2.20815\H,0,-2.72048,2.9
 141,0.95322\H,0,-2.5033,-1.03411,2.8108\H,0,-3.77389,1.35266,2.86739\C
 ,0,-0.5232,1.65914,-0.63197\H,0,-0.50575,0.8503,-1.38434\P,0,0.02362,-
 1.29741,0.81223\C,0,-1.17989,2.87586,-1.28451\H,0,-0.7579,3.10043,-2.2
 7236\H,0,-2.24842,2.65212,-1.43094\H,0,-1.11284,3.78291,-0.66768\P,0,1
 .32364,1.74589,-0.16621\C,0,2.14502,2.6418,-1.63391\C,0,1.474,2.76321,
 1.43396\C,0,0.53759,3.97114,1.48699\H,0,-0.51969,3.66838,1.48257\H,0,0
 .71641,4.51369,2.43352\H,0,0.71009,4.68207,0.66488\C,0,2.91613,3.2393,
 1.62649\H,0,3.00309,3.68406,2.63413\H,0,3.63988,2.40978,1.5717\H,0,3.2
 0677,4.01787,0.90496\C,0,1.13909,1.82026,2.59755\H,0,1.2921,2.35886,3.
 55087\H,0,0.09233,1.48182,2.56896\H,0,1.8007,0.93259,2.59579\C,0,1.708
 18,1.86474,-2.88503\H,0,0.64342,1.99394,-3.13109\H,0,2.28939,2.21994,-
 3.75486\H,0,1.90323,0.78229,-2.77102\C,0,3.67488,2.55376,-1.56066\H,0,
 4.09457,3.0301,-0.66456\H,0,4.04343,1.52393,-1.61294\H,0,4.08789,3.088
 95,-2.43454\C,0,1.80393,4.13186,-1.75845\H,0,2.21803,4.50481,-2.71305\
 H,0,0.73117,4.35606,-1.75866\H,0,2.27565,4.71989,-0.95498\C,0,-0.55863
 ,-2.42126,-0.50167\C,0,-1.58367,-3.34768,-0.27568\C,0,-0.00949,-2.2984
 8,-1.78197\C,0,-2.05655,-4.13585,-1.31904\H,0,-2.02081,-3.45231,0.7210
 3\C,0,-0.49384,-3.07418,-2.83297\H,0,0.80897,-1.58837,-1.94742\C,0,-1.
 5202,-3.98889,-2.60046\H,0,-2.85259,-4.86351,-1.14241\H,0,-0.06808,-2.
 97525,-3.83433\C,0,0.11597,-2.31434,2.32799\C,0,0.32268,-3.69762,2.279
 13\C,0,0.15333,-1.66676,3.57336\C,0,0.55294,-4.42194,3.44821\H,0,0.300
 4,-4.2307,1.32556\C,0,0.37996,-2.38836,4.73869\H,0,0.00344,-0.58632,3.
 6361\C,0,0.58526,-3.76903,4.67713\H,0,0.70421,-5.50274,3.39999\H,0,0.3
 9575,-1.87588,5.70408\C,0,0.88629,-4.52885,5.9447\F,0,0.68393,-5.83589
 ,5.79471\F,0,2.16016,-4.35411,6.30642\F,0,0.12415,-4.10341,6.95194\C,0
 ,-2.09873,-4.77856,-3.74857\F,0,-1.19453,-4.97931,-4.70617\F,0,-2.5466
 8,-5.96575,-3.34516\F,0,-3.12585,-4.12317,-4.29458\\Version=ES64L-G16R
 evC.02\HF=-3859.6802761\RMSD=2.421e-09\Dipole=-0.5893152,1.5656506,-0.
 4271834\Quadrupole=5.799278,1.7240717,-7.5233497,-0.6377801,-11.976285
 6,3.8083857\PG=C01 [X(C34H38F6Fe1P2)]\\@
 The archive entry for this job was punched.


 TO SEE A WORLD IN A GRAIN OF SAND
 AND A HEAVEN IN A WILD FLOWER
 HOLD INFINITY IN THE PALM OF YOUR HAND
 AND ETERNITY IN AN HOUR

                       -- WILLIAM BLAKE
 Job cpu time:       0 days  1 hours  4 minutes 49.2 seconds.
 Elapsed time:       0 days  0 hours  2 minutes 20.5 seconds.
 File lengths (MBytes):  RWF=    480 Int=      0 D2E=      0 Chk=     36 Scr=     32
 Normal termination of Gaussian 16 at Fri Sep 29 19:34:34 2023.
