 Entering Gaussian System, Link 0=g16
 Input=free_ligand_L14_SP.inp
 Output=free_ligand_L14_SP.log
 Initial command:
 /sw/arch/RHEL8/EB_production/2022/software/Gaussian/g16.c02/l1.exe "/scratch-local/adarsh.3962514/Gau-1564015.inp" -scrdir="/scratch-local/adarsh.3962514/"
 Entering Link 1 = /sw/arch/RHEL8/EB_production/2022/software/Gaussian/g16.c02/l1.exe PID=   1564021.
  
 Copyright (c) 1988-2021, Gaussian, Inc.  All Rights Reserved.
  
 This is part of the Gaussian(R) 16 program.  It is based on
 the Gaussian(R) 09 system (copyright 2009, Gaussian, Inc.),
 the Gaussian(R) 03 system (copyright 2003, Gaussian, Inc.),
 the Gaussian(R) 98 system (copyright 1998, Gaussian, Inc.),
 the Gaussian(R) 94 system (copyright 1995, Gaussian, Inc.),
 the Gaussian 92(TM) system (copyright 1992, Gaussian, Inc.),
 the Gaussian 90(TM) system (copyright 1990, Gaussian, Inc.),
 the Gaussian 88(TM) system (copyright 1988, Gaussian, Inc.),
 the Gaussian 86(TM) system (copyright 1986, Carnegie Mellon
 University), and the Gaussian 82(TM) system (copyright 1983,
 Carnegie Mellon University). Gaussian is a federally registered
 trademark of Gaussian, Inc.
  
 This software contains proprietary and confidential information,
 including trade secrets, belonging to Gaussian, Inc.
  
 This software is provided under written license and may be
 used, copied, transmitted, or stored only in accord with that
 written license.
  
 The following legend is applicable only to US Government
 contracts under FAR:
  
                    RESTRICTED RIGHTS LEGEND
  
 Use, reproduction and disclosure by the US Government is
 subject to restrictions as set forth in subparagraphs (a)
 and (c) of the Commercial Computer Software - Restricted
 Rights clause in FAR 52.227-19.
  
 Gaussian, Inc.
 340 Quinnipiac St., Bldg. 40, Wallingford CT 06492
  
  
 ---------------------------------------------------------------
 Warning -- This program may not be used in any manner that
 competes with the business of Gaussian, Inc. or will provide
 assistance to any competitor of Gaussian, Inc.  The licensee
 of this program is prohibited from giving any competitor of
 Gaussian, Inc. access to this program.  By using this program,
 the user acknowledges that Gaussian, Inc. is engaged in the
 business of creating and licensing software in the field of
 computational chemistry and represents and warrants to the
 licensee that it is not a competitor of Gaussian, Inc. and that
 it will not use this program in any manner prohibited above.
 ---------------------------------------------------------------
  

 Cite this work as:
 Gaussian 16, Revision C.02,
 M. J. Frisch, G. W. Trucks, H. B. Schlegel, G. E. Scuseria, 
 M. A. Robb, J. R. Cheeseman, G. Scalmani, V. Barone, 
 G. A. Petersson, H. Nakatsuji, X. Li, M. Caricato, A. V. Marenich, 
 J. Bloino, B. G. Janesko, R. Gomperts, B. Mennucci, H. P. Hratchian, 
 J. V. Ortiz, A. F. Izmaylov, J. L. Sonnenberg, D. Williams-Young, 
 F. Ding, F. Lipparini, F. Egidi, J. Goings, B. Peng, A. Petrone, 
 T. Henderson, D. Ranasinghe, V. G. Zakrzewski, J. Gao, N. Rega, 
 G. Zheng, W. Liang, M. Hada, M. Ehara, K. Toyota, R. Fukuda, 
 J. Hasegawa, M. Ishida, T. Nakajima, Y. Honda, O. Kitao, H. Nakai, 
 T. Vreven, K. Throssell, J. A. Montgomery, Jr., J. E. Peralta, 
 F. Ogliaro, M. J. Bearpark, J. J. Heyd, E. N. Brothers, K. N. Kudin, 
 V. N. Staroverov, T. A. Keith, R. Kobayashi, J. Normand, 
 K. Raghavachari, A. P. Rendell, J. C. Burant, S. S. Iyengar, 
 J. Tomasi, M. Cossi, J. M. Millam, M. Klene, C. Adamo, R. Cammi, 
 J. W. Ochterski, R. L. Martin, K. Morokuma, O. Farkas, 
 J. B. Foresman, and D. J. Fox, Gaussian, Inc., Wallingford CT, 2019.
 
 ******************************************
 Gaussian 16:  ES64L-G16RevC.02  7-Dec-2021
                29-Sep-2023 
 ******************************************
 %nprocshared=32
 Will use up to   32 processors via shared memory.
 %mem=30GB
 %chk=free_ligand_L14.chk
 ----------------------------------------------------------------------
 #p pop=nbo pbe1pbe/def2svpp empiricaldispersion=gd3bj integral=grid=ul
 trafinegrid scf=(xqc,maxconventionalcycles=90) nosymm
 ----------------------------------------------------------------------
 1/38=1,172=1/1;
 2/12=2,15=1,17=6,18=5,40=1/2;
 3/5=43,7=202,11=2,25=1,30=1,74=-13,75=-5,124=41/1,2,3;
 4//1;
 5/5=2,8=3,13=1,38=5,85=90/2,8;
 6/7=2,8=2,9=2,10=2,28=1,40=1/1,7;
 99/5=1,9=1/99;
 Leave Link    1 at Fri Sep 29 19:31:54 2023, MaxMem=  4026531840 cpu:               0.1 elap:               0.8
 (Enter /sw/arch/RHEL8/EB_production/2022/software/Gaussian/g16.c02/l101.exe)
 ----
 Cisa
 ----
 Symbolic Z-matrix:
 Charge =  0 Multiplicity = 1
 P                     0.1889    1.08631  -0.72727 
 C                     1.08989   0.53595  -2.20318 
 C                     0.38185  -0.16719  -3.18098 
 C                     1.03027  -0.72617  -4.28621 
 C                     2.4187   -0.54336  -4.39694 
 C                     3.15483   0.16559  -3.42734 
 C                     2.47269   0.69853  -2.33506 
 C                     0.83545   2.71985  -0.26299 
 C                     0.54774   3.21387   1.01733 
 C                     0.82891   4.53442   1.36199 
 C                     1.40764   5.37159   0.38944 
 C                     1.67951   4.9126   -0.90888 
 C                     1.38267   3.58035  -1.21769 
 P                    -2.56083  -0.66546  -0.05797 
 C                    -1.14752  -1.87393   0.13598 
 C                    -1.57594  -3.23438   0.66555 
 C                     0.62508  -0.00622   0.64504 
 C                    -0.09481  -1.21288   0.97618 
 C                     0.36958  -1.64784   2.25286 
 C                     1.37982  -0.75099   2.69862 
 C                     1.5492    0.2551    1.71068 
 H                    -0.70372  -0.28759  -3.07141 
 H                     3.03493   1.23516  -1.56494 
 H                     0.08134   2.56286   1.76365 
 H                     1.57244   3.22339  -2.23439 
 H                    -0.75517  -1.98649  -0.89089 
 H                    -0.70414  -3.90857   0.71368 
 H                    -2.33422  -3.69713   0.01397 
 H                    -1.99589  -3.15514   1.68083 
 H                     2.25278   1.08586   1.74772 
 C                    -3.7855    0.15764   4.28451 
 C                    -4.19787  -1.05336   3.71034 
 C                    -3.85995  -1.30709   2.37926 
 C                    -3.13587  -0.36381   1.63727 
 C                    -2.75347   0.84183   2.23161 
 C                    -3.06413   1.11496   3.56829 
 H                    -4.17928  -2.24522   1.91586 
 H                    -2.20605   1.58076   1.63351 
 C                    -5.80761  -2.69106  -2.58712 
 C                    -6.20177  -1.97232  -1.4553 
 C                    -5.20876  -1.41139  -0.64144 
 C                    -3.85669  -1.56764  -0.95628 
 C                    -3.49137  -2.28125  -2.10598 
 C                    -4.45957  -2.85724  -2.93067 
 H                    -5.50277  -0.84292   0.24618 
 H                    -2.43537  -2.38767  -2.37737 
 Fe                    1.90328  -1.582     0.90298 
 C                     2.95502  -3.31729   1.15431 
 C                     3.84402  -2.20764   1.07319 
 C                     3.63947  -1.57082  -0.18364 
 C                     2.62483  -2.28885  -0.88316 
 C                     2.20548  -3.36832  -0.05691 
 H                     2.8491   -3.99274   2.00352 
 H                     4.16207  -0.68485  -0.54078 
 H                     2.22869  -2.04296  -1.86853 
 H                     1.43442  -4.0989   -0.3025 
 H                    -4.045     0.36174   5.32928 
 H                    -6.57666  -3.13607  -3.22781 
 C                    -4.99006  -2.04514   4.51349 
 H                    -5.96839  -1.62587   4.80881 
 H                    -5.17779  -2.96955   3.94416 
 H                    -4.46164  -2.31911   5.44321 
 C                    -2.60467   2.39319   4.21002 
 H                    -3.21218   2.64677   5.09365 
 H                    -1.55424   2.30619   4.54511 
 H                    -2.65463   3.23921   3.50373 
 C                    -7.65558  -1.77464  -1.13431 
 H                    -7.81418  -1.62139  -0.05439 
 H                    -8.05464  -0.88501  -1.65583 
 H                    -8.26095  -2.63893  -1.4528 
 C                    -4.06658  -3.65277  -4.1424 
 H                    -4.74603  -3.46039  -4.98932 
 H                    -3.03861  -3.417    -4.46495 
 H                    -4.10772  -4.7371   -3.93175 
 H                     1.95437  -0.84473   3.62008 
 H                     0.04349  -2.54403   2.77817 
 H                     4.53704  -1.88487   1.8504 
 O                     1.63519   6.67317   0.71104 
 O                     3.09809  -1.11458  -5.42595 
 C                     0.27471  -1.51888  -5.31246 
 H                    -0.03168  -0.89088  -6.16908 
 H                     0.89658  -2.33672  -5.71054 
 H                    -0.64403  -1.94947  -4.87994 
 C                     4.644     0.28012  -3.56069 
 H                     5.10877  -0.71962  -3.60832 
 H                     4.93418   0.80862  -4.4852 
 H                     5.07611   0.8279   -2.70817 
 C                     3.1211   -0.38999  -6.63628 
 H                     3.56249   0.6146   -6.49614 
 H                     3.74518  -0.96315  -7.33776 
 H                     2.10832  -0.27661  -7.0653 
 C                     2.94632   6.98883   1.12507 
 H                     3.68348   6.80859   0.32082 
 H                     2.95029   8.05865   1.38148 
 H                     3.24062   6.40185   2.01536 
 C                     2.25031   5.83838  -1.94227 
 H                     1.8859    6.86684  -1.78953 
 H                     3.35441   5.86963  -1.89386 
 H                     1.97756   5.51151  -2.95871 
 C                     0.50565   5.0786    2.72185 
 H                    -0.05148   6.02693   2.64372 
 H                    -0.09407   4.35921   3.30233 
 H                     1.42138   5.29621   3.30015 
 
 ITRead=  0  0  0  0  0  0  0  0  0  0  0  0  0  0  0  0  0  0  0  0
 ITRead=  0  0  0  0  0  0  0  0  0  0  0  0  0  0  0  0  0  0  0  0
 ITRead=  0  0  0  0  0  0  0  0  0  0  0  0  0  0  0  0  0  0  0  0
 ITRead=  0  0  0  0  0  0  0  0  0  0  0  0  0  0  0  0  0  0  0  0
 ITRead=  0  0  0  0  0  0  0  0  0  0  0  0  0  0  0  0  0  0  0  0
 ITRead=  0  0  0
 MicOpt= -1 -1 -1 -1 -1 -1 -1 -1 -1 -1 -1 -1 -1 -1 -1 -1 -1 -1 -1 -1
 MicOpt= -1 -1 -1 -1 -1 -1 -1 -1 -1 -1 -1 -1 -1 -1 -1 -1 -1 -1 -1 -1
 MicOpt= -1 -1 -1 -1 -1 -1 -1 -1 -1 -1 -1 -1 -1 -1 -1 -1 -1 -1 -1 -1
 MicOpt= -1 -1 -1 -1 -1 -1 -1 -1 -1 -1 -1 -1 -1 -1 -1 -1 -1 -1 -1 -1
 MicOpt= -1 -1 -1 -1 -1 -1 -1 -1 -1 -1 -1 -1 -1 -1 -1 -1 -1 -1 -1 -1
 MicOpt= -1 -1 -1
 NAtoms=    103 NQM=      103 NQMF=       0 NMMI=      0 NMMIF=      0
                NMic=       0 NMicF=      0.
                    Isotopes and Nuclear Properties:
 (Nuclear quadrupole moments (NQMom) in fm**2, nuclear magnetic moments (NMagM)
  in nuclear magnetons)

  Atom         1           2           3           4           5           6           7           8           9          10
 IAtWgt=          31          12          12          12          12          12          12          12          12          12
 AtmWgt=  30.9737634  12.0000000  12.0000000  12.0000000  12.0000000  12.0000000  12.0000000  12.0000000  12.0000000  12.0000000
 NucSpn=           1           0           0           0           0           0           0           0           0           0
 AtZEff=  -0.0000000  -0.0000000  -0.0000000  -0.0000000  -0.0000000  -0.0000000  -0.0000000  -0.0000000  -0.0000000  -0.0000000
 NQMom=    0.0000000   0.0000000   0.0000000   0.0000000   0.0000000   0.0000000   0.0000000   0.0000000   0.0000000   0.0000000
 NMagM=    1.1316000   0.0000000   0.0000000   0.0000000   0.0000000   0.0000000   0.0000000   0.0000000   0.0000000   0.0000000
 AtZNuc=  15.0000000   6.0000000   6.0000000   6.0000000   6.0000000   6.0000000   6.0000000   6.0000000   6.0000000   6.0000000

  Atom        11          12          13          14          15          16          17          18          19          20
 IAtWgt=          12          12          12          31          12          12          12          12          12          12
 AtmWgt=  12.0000000  12.0000000  12.0000000  30.9737634  12.0000000  12.0000000  12.0000000  12.0000000  12.0000000  12.0000000
 NucSpn=           0           0           0           1           0           0           0           0           0           0
 AtZEff=  -0.0000000  -0.0000000  -0.0000000  -0.0000000  -0.0000000  -0.0000000  -0.0000000  -0.0000000  -0.0000000  -0.0000000
 NQMom=    0.0000000   0.0000000   0.0000000   0.0000000   0.0000000   0.0000000   0.0000000   0.0000000   0.0000000   0.0000000
 NMagM=    0.0000000   0.0000000   0.0000000   1.1316000   0.0000000   0.0000000   0.0000000   0.0000000   0.0000000   0.0000000
 AtZNuc=   6.0000000   6.0000000   6.0000000  15.0000000   6.0000000   6.0000000   6.0000000   6.0000000   6.0000000   6.0000000

  Atom        21          22          23          24          25          26          27          28          29          30
 IAtWgt=          12           1           1           1           1           1           1           1           1           1
 AtmWgt=  12.0000000   1.0078250   1.0078250   1.0078250   1.0078250   1.0078250   1.0078250   1.0078250   1.0078250   1.0078250
 NucSpn=           0           1           1           1           1           1           1           1           1           1
 AtZEff=  -0.0000000  -0.0000000  -0.0000000  -0.0000000  -0.0000000  -0.0000000  -0.0000000  -0.0000000  -0.0000000  -0.0000000
 NQMom=    0.0000000   0.0000000   0.0000000   0.0000000   0.0000000   0.0000000   0.0000000   0.0000000   0.0000000   0.0000000
 NMagM=    0.0000000   2.7928460   2.7928460   2.7928460   2.7928460   2.7928460   2.7928460   2.7928460   2.7928460   2.7928460
 AtZNuc=   6.0000000   1.0000000   1.0000000   1.0000000   1.0000000   1.0000000   1.0000000   1.0000000   1.0000000   1.0000000

  Atom        31          32          33          34          35          36          37          38          39          40
 IAtWgt=          12          12          12          12          12          12           1           1          12          12
 AtmWgt=  12.0000000  12.0000000  12.0000000  12.0000000  12.0000000  12.0000000   1.0078250   1.0078250  12.0000000  12.0000000
 NucSpn=           0           0           0           0           0           0           1           1           0           0
 AtZEff=  -0.0000000  -0.0000000  -0.0000000  -0.0000000  -0.0000000  -0.0000000  -0.0000000  -0.0000000  -0.0000000  -0.0000000
 NQMom=    0.0000000   0.0000000   0.0000000   0.0000000   0.0000000   0.0000000   0.0000000   0.0000000   0.0000000   0.0000000
 NMagM=    0.0000000   0.0000000   0.0000000   0.0000000   0.0000000   0.0000000   2.7928460   2.7928460   0.0000000   0.0000000
 AtZNuc=   6.0000000   6.0000000   6.0000000   6.0000000   6.0000000   6.0000000   1.0000000   1.0000000   6.0000000   6.0000000

  Atom        41          42          43          44          45          46          47          48          49          50
 IAtWgt=          12          12          12          12           1           1          56          12          12          12
 AtmWgt=  12.0000000  12.0000000  12.0000000  12.0000000   1.0078250   1.0078250  55.9349393  12.0000000  12.0000000  12.0000000
 NucSpn=           0           0           0           0           1           1           0           0           0           0
 AtZEff=  -0.0000000  -0.0000000  -0.0000000  -0.0000000  -0.0000000  -0.0000000  -0.0000000  -0.0000000  -0.0000000  -0.0000000
 NQMom=    0.0000000   0.0000000   0.0000000   0.0000000   0.0000000   0.0000000   0.0000000   0.0000000   0.0000000   0.0000000
 NMagM=    0.0000000   0.0000000   0.0000000   0.0000000   2.7928460   2.7928460   0.0000000   0.0000000   0.0000000   0.0000000
 AtZNuc=   6.0000000   6.0000000   6.0000000   6.0000000   1.0000000   1.0000000  26.0000000   6.0000000   6.0000000   6.0000000

  Atom        51          52          53          54          55          56          57          58          59          60
 IAtWgt=          12          12           1           1           1           1           1           1          12           1
 AtmWgt=  12.0000000  12.0000000   1.0078250   1.0078250   1.0078250   1.0078250   1.0078250   1.0078250  12.0000000   1.0078250
 NucSpn=           0           0           1           1           1           1           1           1           0           1
 AtZEff=  -0.0000000  -0.0000000  -0.0000000  -0.0000000  -0.0000000  -0.0000000  -0.0000000  -0.0000000  -0.0000000  -0.0000000
 NQMom=    0.0000000   0.0000000   0.0000000   0.0000000   0.0000000   0.0000000   0.0000000   0.0000000   0.0000000   0.0000000
 NMagM=    0.0000000   0.0000000   2.7928460   2.7928460   2.7928460   2.7928460   2.7928460   2.7928460   0.0000000   2.7928460
 AtZNuc=   6.0000000   6.0000000   1.0000000   1.0000000   1.0000000   1.0000000   1.0000000   1.0000000   6.0000000   1.0000000

  Atom        61          62          63          64          65          66          67          68          69          70
 IAtWgt=           1           1          12           1           1           1          12           1           1           1
 AtmWgt=   1.0078250   1.0078250  12.0000000   1.0078250   1.0078250   1.0078250  12.0000000   1.0078250   1.0078250   1.0078250
 NucSpn=           1           1           0           1           1           1           0           1           1           1
 AtZEff=  -0.0000000  -0.0000000  -0.0000000  -0.0000000  -0.0000000  -0.0000000  -0.0000000  -0.0000000  -0.0000000  -0.0000000
 NQMom=    0.0000000   0.0000000   0.0000000   0.0000000   0.0000000   0.0000000   0.0000000   0.0000000   0.0000000   0.0000000
 NMagM=    2.7928460   2.7928460   0.0000000   2.7928460   2.7928460   2.7928460   0.0000000   2.7928460   2.7928460   2.7928460
 AtZNuc=   1.0000000   1.0000000   6.0000000   1.0000000   1.0000000   1.0000000   6.0000000   1.0000000   1.0000000   1.0000000

  Atom        71          72          73          74          75          76          77          78          79          80
 IAtWgt=          12           1           1           1           1           1           1          16          16          12
 AtmWgt=  12.0000000   1.0078250   1.0078250   1.0078250   1.0078250   1.0078250   1.0078250  15.9949146  15.9949146  12.0000000
 NucSpn=           0           1           1           1           1           1           1           0           0           0
 AtZEff=  -0.0000000  -0.0000000  -0.0000000  -0.0000000  -0.0000000  -0.0000000  -0.0000000  -0.0000000  -0.0000000  -0.0000000
 NQMom=    0.0000000   0.0000000   0.0000000   0.0000000   0.0000000   0.0000000   0.0000000   0.0000000   0.0000000   0.0000000
 NMagM=    0.0000000   2.7928460   2.7928460   2.7928460   2.7928460   2.7928460   2.7928460   0.0000000   0.0000000   0.0000000
 AtZNuc=   6.0000000   1.0000000   1.0000000   1.0000000   1.0000000   1.0000000   1.0000000   8.0000000   8.0000000   6.0000000

  Atom        81          82          83          84          85          86          87          88          89          90
 IAtWgt=           1           1           1          12           1           1           1          12           1           1
 AtmWgt=   1.0078250   1.0078250   1.0078250  12.0000000   1.0078250   1.0078250   1.0078250  12.0000000   1.0078250   1.0078250
 NucSpn=           1           1           1           0           1           1           1           0           1           1
 AtZEff=  -0.0000000  -0.0000000  -0.0000000  -0.0000000  -0.0000000  -0.0000000  -0.0000000  -0.0000000  -0.0000000  -0.0000000
 NQMom=    0.0000000   0.0000000   0.0000000   0.0000000   0.0000000   0.0000000   0.0000000   0.0000000   0.0000000   0.0000000
 NMagM=    2.7928460   2.7928460   2.7928460   0.0000000   2.7928460   2.7928460   2.7928460   0.0000000   2.7928460   2.7928460
 AtZNuc=   1.0000000   1.0000000   1.0000000   6.0000000   1.0000000   1.0000000   1.0000000   6.0000000   1.0000000   1.0000000

  Atom        91          92          93          94          95          96          97          98          99         100
 IAtWgt=           1          12           1           1           1          12           1           1           1          12
 AtmWgt=   1.0078250  12.0000000   1.0078250   1.0078250   1.0078250  12.0000000   1.0078250   1.0078250   1.0078250  12.0000000
 NucSpn=           1           0           1           1           1           0           1           1           1           0
 AtZEff=  -0.0000000  -0.0000000  -0.0000000  -0.0000000  -0.0000000  -0.0000000  -0.0000000  -0.0000000  -0.0000000  -0.0000000
 NQMom=    0.0000000   0.0000000   0.0000000   0.0000000   0.0000000   0.0000000   0.0000000   0.0000000   0.0000000   0.0000000
 NMagM=    2.7928460   0.0000000   2.7928460   2.7928460   2.7928460   0.0000000   2.7928460   2.7928460   2.7928460   0.0000000
 AtZNuc=   1.0000000   6.0000000   1.0000000   1.0000000   1.0000000   6.0000000   1.0000000   1.0000000   1.0000000   6.0000000

  Atom       101         102         103
 IAtWgt=           1           1           1
 AtmWgt=   1.0078250   1.0078250   1.0078250
 NucSpn=           1           1           1
 AtZEff=  -0.0000000  -0.0000000  -0.0000000
 NQMom=    0.0000000   0.0000000   0.0000000
 NMagM=    2.7928460   2.7928460   2.7928460
 AtZNuc=   1.0000000   1.0000000   1.0000000
 Leave Link  101 at Fri Sep 29 19:31:54 2023, MaxMem=  4026531840 cpu:               0.1 elap:               0.2
 (Enter /sw/arch/RHEL8/EB_production/2022/software/Gaussian/g16.c02/l202.exe)
 Symmetry turned off by external request.
 Stoichiometry    C46H52FeO2P2
 Framework group  C1[X(C46H52FeO2P2)]
 Deg. of freedom   303
 Full point group                 C1      NOp   1
                          Input orientation:                          
 ---------------------------------------------------------------------
 Center     Atomic      Atomic             Coordinates (Angstroms)
 Number     Number       Type             X           Y           Z
 ---------------------------------------------------------------------
      1         15           0        0.188900    1.086310   -0.727270
      2          6           0        1.089890    0.535950   -2.203180
      3          6           0        0.381850   -0.167190   -3.180980
      4          6           0        1.030270   -0.726170   -4.286210
      5          6           0        2.418700   -0.543360   -4.396940
      6          6           0        3.154830    0.165590   -3.427340
      7          6           0        2.472690    0.698530   -2.335060
      8          6           0        0.835450    2.719850   -0.262990
      9          6           0        0.547740    3.213870    1.017330
     10          6           0        0.828910    4.534420    1.361990
     11          6           0        1.407640    5.371590    0.389440
     12          6           0        1.679510    4.912600   -0.908880
     13          6           0        1.382670    3.580350   -1.217690
     14         15           0       -2.560830   -0.665460   -0.057970
     15          6           0       -1.147520   -1.873930    0.135980
     16          6           0       -1.575940   -3.234380    0.665550
     17          6           0        0.625080   -0.006220    0.645040
     18          6           0       -0.094810   -1.212880    0.976180
     19          6           0        0.369580   -1.647840    2.252860
     20          6           0        1.379820   -0.750990    2.698620
     21          6           0        1.549200    0.255100    1.710680
     22          1           0       -0.703720   -0.287590   -3.071410
     23          1           0        3.034930    1.235160   -1.564940
     24          1           0        0.081340    2.562860    1.763650
     25          1           0        1.572440    3.223390   -2.234390
     26          1           0       -0.755170   -1.986490   -0.890890
     27          1           0       -0.704140   -3.908570    0.713680
     28          1           0       -2.334220   -3.697130    0.013970
     29          1           0       -1.995890   -3.155140    1.680830
     30          1           0        2.252780    1.085860    1.747720
     31          6           0       -3.785500    0.157640    4.284510
     32          6           0       -4.197870   -1.053360    3.710340
     33          6           0       -3.859950   -1.307090    2.379260
     34          6           0       -3.135870   -0.363810    1.637270
     35          6           0       -2.753470    0.841830    2.231610
     36          6           0       -3.064130    1.114960    3.568290
     37          1           0       -4.179280   -2.245220    1.915860
     38          1           0       -2.206050    1.580760    1.633510
     39          6           0       -5.807610   -2.691060   -2.587120
     40          6           0       -6.201770   -1.972320   -1.455300
     41          6           0       -5.208760   -1.411390   -0.641440
     42          6           0       -3.856690   -1.567640   -0.956280
     43          6           0       -3.491370   -2.281250   -2.105980
     44          6           0       -4.459570   -2.857240   -2.930670
     45          1           0       -5.502770   -0.842920    0.246180
     46          1           0       -2.435370   -2.387670   -2.377370
     47         26           0        1.903280   -1.582000    0.902980
     48          6           0        2.955020   -3.317290    1.154310
     49          6           0        3.844020   -2.207640    1.073190
     50          6           0        3.639470   -1.570820   -0.183640
     51          6           0        2.624830   -2.288850   -0.883160
     52          6           0        2.205480   -3.368320   -0.056910
     53          1           0        2.849100   -3.992740    2.003520
     54          1           0        4.162070   -0.684850   -0.540780
     55          1           0        2.228690   -2.042960   -1.868530
     56          1           0        1.434420   -4.098900   -0.302500
     57          1           0       -4.045000    0.361740    5.329280
     58          1           0       -6.576660   -3.136070   -3.227810
     59          6           0       -4.990060   -2.045140    4.513490
     60          1           0       -5.968390   -1.625870    4.808810
     61          1           0       -5.177790   -2.969550    3.944160
     62          1           0       -4.461640   -2.319110    5.443210
     63          6           0       -2.604670    2.393190    4.210020
     64          1           0       -3.212180    2.646770    5.093650
     65          1           0       -1.554240    2.306190    4.545110
     66          1           0       -2.654630    3.239210    3.503730
     67          6           0       -7.655580   -1.774640   -1.134310
     68          1           0       -7.814180   -1.621390   -0.054390
     69          1           0       -8.054640   -0.885010   -1.655830
     70          1           0       -8.260950   -2.638930   -1.452800
     71          6           0       -4.066580   -3.652770   -4.142400
     72          1           0       -4.746030   -3.460390   -4.989320
     73          1           0       -3.038610   -3.417000   -4.464950
     74          1           0       -4.107720   -4.737100   -3.931750
     75          1           0        1.954370   -0.844730    3.620080
     76          1           0        0.043490   -2.544030    2.778170
     77          1           0        4.537040   -1.884870    1.850400
     78          8           0        1.635190    6.673170    0.711040
     79          8           0        3.098090   -1.114580   -5.425950
     80          6           0        0.274710   -1.518880   -5.312460
     81          1           0       -0.031680   -0.890880   -6.169080
     82          1           0        0.896580   -2.336720   -5.710540
     83          1           0       -0.644030   -1.949470   -4.879940
     84          6           0        4.644000    0.280120   -3.560690
     85          1           0        5.108770   -0.719620   -3.608320
     86          1           0        4.934180    0.808620   -4.485200
     87          1           0        5.076110    0.827900   -2.708170
     88          6           0        3.121100   -0.389990   -6.636280
     89          1           0        3.562490    0.614600   -6.496140
     90          1           0        3.745180   -0.963150   -7.337760
     91          1           0        2.108320   -0.276610   -7.065300
     92          6           0        2.946320    6.988830    1.125070
     93          1           0        3.683480    6.808590    0.320820
     94          1           0        2.950290    8.058650    1.381480
     95          1           0        3.240620    6.401850    2.015360
     96          6           0        2.250310    5.838380   -1.942270
     97          1           0        1.885900    6.866840   -1.789530
     98          1           0        3.354410    5.869630   -1.893860
     99          1           0        1.977560    5.511510   -2.958710
    100          6           0        0.505650    5.078600    2.721850
    101          1           0       -0.051480    6.026930    2.643720
    102          1           0       -0.094070    4.359210    3.302330
    103          1           0        1.421380    5.296210    3.300150
 ---------------------------------------------------------------------
 Rotational constants (GHZ):           0.0554279           0.0445605           0.0352457
 Leave Link  202 at Fri Sep 29 19:31:54 2023, MaxMem=  4026531840 cpu:               0.1 elap:               0.0
 (Enter /sw/arch/RHEL8/EB_production/2022/software/Gaussian/g16.c02/l301.exe)
 Standard basis: def2SVPP (5D, 7F)
 Ernie: Thresh=  0.10000D-02 Tol=  0.10000D-05 Strict=F.
   836 basis functions,  1553 primitive gaussians,   888 cartesian basis functions
   200 alpha electrons      200 beta electrons
       nuclear repulsion energy      8291.8894511125 Hartrees.
 IExCor= 1009 DFT=T Ex+Corr=PBE1PBE ExCW=0 ScaHFX=  0.250000
 ScaDFX=  0.750000  0.750000  1.000000  1.000000 ScalE2=  1.000000  1.000000
 IRadAn=      5 IRanWt=     -1 IRanGd=            0 ICorTp=0 IEmpDi=141
 NAtoms=  103 NActive=  103 NUniq=  103 SFac= 1.00D+00 NAtFMM=   60 NAOKFM=T Big=T
 Integral buffers will be    131072 words long.
 Raffenetti 2 integral format.
 Two-electron integral symmetry is turned off.
 R6Disp:  Grimme-D3(BJ) Dispersion energy=       -0.1522937452 Hartrees.
 Nuclear repulsion after empirical dispersion term =     8291.7371573672 Hartrees.
 Leave Link  301 at Fri Sep 29 19:31:55 2023, MaxMem=  4026531840 cpu:               0.1 elap:               0.0
 (Enter /sw/arch/RHEL8/EB_production/2022/software/Gaussian/g16.c02/l302.exe)
 NPDir=0 NMtPBC=     1 NCelOv=     1 NCel=       1 NClECP=     1 NCelD=      1
         NCelK=      1 NCelE2=     1 NClLst=     1 CellRange=     0.0.
 One-electron integrals computed using PRISM.
   1 Symmetry operations used in ECPInt.
 ECPInt:  NShTT=   87571 NPrTT=  360842 LenC2=   70803 LenP2D=  175112.
 LDataN:  DoStor=T MaxTD1= 4 Len=   56
 NBasis=   836 RedAO= T EigKep=  1.87D-04  NBF=   836
 NBsUse=   836 1.00D-06 EigRej= -1.00D+00 NBFU=   836
 Precomputing XC quadrature grid using
 IXCGrd= 4 IRadAn=           5 IRanWt=          -1 IRanGd=           0 AccXCQ= 0.00D+00.
 Generated NRdTot=       0 NPtTot=           0 NUsed=           0 NTot=          32
 NSgBfM=   840   840   840   840   840 MxSgAt=   103 MxSgA2=   103.
 Leave Link  302 at Fri Sep 29 19:31:56 2023, MaxMem=  4026531840 cpu:              23.4 elap:               1.4
 (Enter /sw/arch/RHEL8/EB_production/2022/software/Gaussian/g16.c02/l303.exe)
 DipDrv:  MaxL=1.
 Leave Link  303 at Fri Sep 29 19:31:56 2023, MaxMem=  4026531840 cpu:               0.5 elap:               0.1
 (Enter /sw/arch/RHEL8/EB_production/2022/software/Gaussian/g16.c02/l401.exe)
 ExpMin= 3.37D-02 ExpMax= 6.09D+04 ExpMxC= 9.15D+03 IAcc=3 IRadAn=         5 AccDes= 0.00D+00
 Harris functional with IExCor= 1009 and IRadAn=       5 diagonalized for initial guess.
 HarFok:  IExCor= 1009 AccDes= 0.00D+00 IRadAn=         5 IDoV= 1 UseB2=F ITyADJ=14
 ICtDFT=  3500011 ScaDFX=  1.000000  1.000000  1.000000  1.000000
 FoFCou: FMM=F IPFlag=           0 FMFlag=      100000 FMFlg1=        2001
         NFxFlg=           0 DoJE=T BraDBF=F KetDBF=T FulRan=T
         wScrn=  0.000000 ICntrl=       500 IOpCl=  0 I1Cent=   200000004 NGrid=           0
         NMat0=    1 NMatS0=      1 NMatT0=    0 NMatD0=    1 NMtDS0=    0 NMtDT0=    0
 Symmetry not used in FoFCou.
 Harris En= -3877.12560096879    
 JPrj=0 DoOrth=F DoCkMO=F.
 Leave Link  401 at Fri Sep 29 19:32:00 2023, MaxMem=  4026531840 cpu:              87.9 elap:               3.5
 (Enter /sw/arch/RHEL8/EB_production/2022/software/Gaussian/g16.c02/l502.exe)
 Two-electron integral symmetry not used.
 Closed shell SCF:
 Using DIIS extrapolation, IDIIS=  1040.
 NGot=  4026531840 LenX=  4024914932 LenY=  4024125500
 Requested convergence on RMS density matrix=1.00D-08 within  90 cycles.
 Requested convergence on MAX density matrix=1.00D-06.
 Requested convergence on             energy=1.00D-06.
 No special actions if energy rises.
 Fock matrices will be formed incrementally for  20 cycles.

 Cycle   1  Pass 1  IDiag  1:
 FoFJK:  IHMeth= 1 ICntrl=       0 DoSepK=F KAlg= 0 I1Cent=           0 FoldK=F
 IRaf= 960000000 NMat=       1 IRICut=       1 DoRegI=T DoRafI=F ISym2E= 0 IDoP0=0 IntGTp=1.
 FoFCou: FMM=T IPFlag=           0 FMFlag=      100000 FMFlg1=        2001
         NFxFlg=           0 DoJE=F BraDBF=F KetDBF=F FulRan=T
         wScrn=  0.000000 ICntrl=         0 IOpCl=  0 I1Cent=           0 NGrid=           0
         NMat0=    1 NMatS0=      1 NMatT0=    0 NMatD0=    1 NMtDS0=    0 NMtDT0=    0
 Symmetry not used in FoFCou.
 FMM levels:  10  Number of levels for PrismC:   9
 E= -3875.44260136373    
 DIIS: error= 2.05D-02 at cycle   1 NSaved=   1.
 NSaved= 1 IEnMin= 1 EnMin= -3875.44260136373     IErMin= 1 ErrMin= 2.05D-02
 ErrMax= 2.05D-02  0.00D+00 EMaxC= 1.00D-01 BMatC= 1.08D+00 BMatP= 1.08D+00
 IDIUse=3 WtCom= 7.95D-01 WtEn= 2.05D-01
 Coeff-Com:  0.100D+01
 Coeff-En:   0.100D+01
 Coeff:      0.100D+01
 Gap=     0.219 Goal=   None    Shift=    0.000
 GapD=    0.219 DampG=1.000 DampE=0.250 DampFc=0.2500 IDamp=-1.
 Damping current iteration by 2.50D-01
 RMSDP=3.61D-03 MaxDP=2.22D-01              OVMax= 1.76D-01

 Cycle   2  Pass 1  IDiag  1:
 RMSU=  8.58D-04    CP:  9.81D-01
 E= -3875.85721569613     Delta-E=       -0.414614332394 Rises=F Damp=T
 DIIS: error= 1.08D-02 at cycle   2 NSaved=   2.
 NSaved= 2 IEnMin= 2 EnMin= -3875.85721569613     IErMin= 2 ErrMin= 1.08D-02
 ErrMax= 1.08D-02  0.00D+00 EMaxC= 1.00D-01 BMatC= 2.87D-01 BMatP= 1.08D+00
 IDIUse=3 WtCom= 8.92D-01 WtEn= 1.08D-01
 Coeff-Com: -0.700D+00 0.170D+01
 Coeff-En:   0.000D+00 0.100D+01
 Coeff:     -0.625D+00 0.162D+01
 Gap=     0.229 Goal=   None    Shift=    0.000
 RMSDP=3.36D-03 MaxDP=3.87D-01 DE=-4.15D-01 OVMax= 4.36D-01

 Cycle   3  Pass 1  IDiag  1:
 RMSU=  3.29D-03    CP:  9.73D-01  1.78D+00
 E= -3874.96207271011     Delta-E=        0.895142986015 Rises=F Damp=F
 DIIS: error= 8.82D-02 at cycle   3 NSaved=   3.
 NSaved= 3 IEnMin= 2 EnMin= -3875.85721569613     IErMin= 2 ErrMin= 1.08D-02
 ErrMax= 8.82D-02  0.00D+00 EMaxC= 1.00D-01 BMatC= 2.61D+00 BMatP= 2.87D-01
 IDIUse=2 WtCom= 0.00D+00 WtEn= 1.00D+00
 Coeff-En:   0.000D+00 0.747D+00 0.253D+00
 Coeff:      0.000D+00 0.747D+00 0.253D+00
 Gap=     0.409 Goal=   None    Shift=    0.000
 RMSDP=4.81D-03 MaxDP=4.35D-01 DE= 8.95D-01 OVMax= 4.56D-01

 Cycle   4  Pass 1  IDiag  1:
 RMSU=  1.66D-03    CP:  9.19D-01  2.71D+00 -3.29D-01
 E= -3874.00030406306     Delta-E=        0.961768647054 Rises=F Damp=F
 DIIS: error= 1.01D-01 at cycle   4 NSaved=   4.
 NSaved= 4 IEnMin= 2 EnMin= -3875.85721569613     IErMin= 2 ErrMin= 1.08D-02
 ErrMax= 1.01D-01  0.00D+00 EMaxC= 1.00D-01 BMatC= 4.21D+00 BMatP= 2.87D-01
 IDIUse=2 WtCom= 0.00D+00 WtEn= 1.00D+00
 Coeff-En:   0.000D+00 0.000D+00 0.568D+00 0.432D+00
 Coeff:      0.000D+00 0.000D+00 0.568D+00 0.432D+00
 Gap=     0.092 Goal=   None    Shift=    0.000
 RMSDP=1.95D-03 MaxDP=2.56D-01 DE= 9.62D-01 OVMax= 3.21D-01

 Cycle   5  Pass 1  IDiag  1:
 RMSU=  7.64D-04    CP:  9.51D-01  1.65D+00  4.64D-02  5.04D-01
 E= -3876.47944576198     Delta-E=       -2.479141698919 Rises=F Damp=F
 DIIS: error= 1.76D-02 at cycle   5 NSaved=   5.
 NSaved= 5 IEnMin= 5 EnMin= -3876.47944576198     IErMin= 2 ErrMin= 1.08D-02
 ErrMax= 1.76D-02  0.00D+00 EMaxC= 1.00D-01 BMatC= 1.79D-01 BMatP= 2.87D-01
 IDIUse=3 WtCom= 8.24D-01 WtEn= 1.76D-01
 Coeff-Com: -0.592D+00 0.816D+00 0.132D+00-0.114D+00 0.758D+00
 Coeff-En:   0.000D+00 0.000D+00 0.150D+00 0.000D+00 0.850D+00
 Coeff:     -0.488D+00 0.672D+00 0.136D+00-0.938D-01 0.774D+00
 Gap=     0.161 Goal=   None    Shift=    0.000
 RMSDP=7.54D-04 MaxDP=8.98D-02 DE=-2.48D+00 OVMax= 6.68D-02

 Cycle   6  Pass 1  IDiag  1:
 RMSU=  3.10D-04    CP:  9.50D-01  2.09D+00  1.77D-01  2.75D-01  9.57D-01
 E= -3876.61198127321     Delta-E=       -0.132535511235 Rises=F Damp=F
 DIIS: error= 5.27D-03 at cycle   6 NSaved=   6.
 NSaved= 6 IEnMin= 6 EnMin= -3876.61198127321     IErMin= 6 ErrMin= 5.27D-03
 ErrMax= 5.27D-03  0.00D+00 EMaxC= 1.00D-01 BMatC= 1.31D-02 BMatP= 1.79D-01
 IDIUse=3 WtCom= 9.47D-01 WtEn= 5.27D-02
 Coeff-Com: -0.254D+00 0.346D+00 0.705D-01-0.717D-01 0.383D+00 0.527D+00
 Coeff-En:   0.000D+00 0.000D+00 0.000D+00 0.000D+00 0.000D+00 0.100D+01
 Coeff:     -0.241D+00 0.327D+00 0.668D-01-0.679D-01 0.363D+00 0.552D+00
 Gap=     0.156 Goal=   None    Shift=    0.000
 RMSDP=2.34D-04 MaxDP=2.16D-02 DE=-1.33D-01 OVMax= 2.29D-02

 Cycle   7  Pass 1  IDiag  1:
 RMSU=  1.49D-04    CP:  9.51D-01  2.04D+00  1.68D-01  2.69D-01  1.00D+00
                    CP:  4.55D-01
 E= -3876.61752733364     Delta-E=       -0.005546060434 Rises=F Damp=F
 DIIS: error= 3.63D-03 at cycle   7 NSaved=   7.
 NSaved= 7 IEnMin= 7 EnMin= -3876.61752733364     IErMin= 7 ErrMin= 3.63D-03
 ErrMax= 3.63D-03  0.00D+00 EMaxC= 1.00D-01 BMatC= 6.24D-03 BMatP= 1.31D-02
 IDIUse=3 WtCom= 9.64D-01 WtEn= 3.63D-02
 Coeff-Com:  0.496D-01-0.655D-01 0.143D-01-0.160D-01-0.322D-01 0.396D+00
 Coeff-Com:  0.654D+00
 Coeff-En:   0.000D+00 0.000D+00 0.000D+00 0.000D+00 0.000D+00 0.202D+00
 Coeff-En:   0.798D+00
 Coeff:      0.478D-01-0.631D-01 0.138D-01-0.154D-01-0.310D-01 0.389D+00
 Coeff:      0.659D+00
 Gap=     0.153 Goal=   None    Shift=    0.000
 RMSDP=1.30D-04 MaxDP=1.19D-02 DE=-5.55D-03 OVMax= 1.35D-02

 Cycle   8  Pass 1  IDiag  1:
 RMSU=  5.42D-05    CP:  9.52D-01  2.03D+00  1.87D-01  2.52D-01  1.01D+00
                    CP:  6.86D-01  5.87D-01
 E= -3876.62201476711     Delta-E=       -0.004487433469 Rises=F Damp=F
 DIIS: error= 4.11D-04 at cycle   8 NSaved=   8.
 NSaved= 8 IEnMin= 8 EnMin= -3876.62201476711     IErMin= 8 ErrMin= 4.11D-04
 ErrMax= 4.11D-04  0.00D+00 EMaxC= 1.00D-01 BMatC= 2.90D-04 BMatP= 6.24D-03
 IDIUse=3 WtCom= 9.96D-01 WtEn= 4.11D-03
 Coeff-Com:  0.649D-01-0.898D-01 0.147D-02-0.924D-03-0.642D-01 0.166D+00
 Coeff-Com:  0.385D+00 0.537D+00
 Coeff-En:   0.000D+00 0.000D+00 0.000D+00 0.000D+00 0.000D+00 0.000D+00
 Coeff-En:   0.000D+00 0.100D+01
 Coeff:      0.647D-01-0.895D-01 0.147D-02-0.920D-03-0.639D-01 0.166D+00
 Coeff:      0.383D+00 0.539D+00
 Gap=     0.153 Goal=   None    Shift=    0.000
 RMSDP=3.44D-05 MaxDP=2.98D-03 DE=-4.49D-03 OVMax= 3.35D-03

 Cycle   9  Pass 1  IDiag  1:
 RMSU=  2.05D-05    CP:  9.52D-01  2.03D+00  1.88D-01  2.53D-01  1.02D+00
                    CP:  6.81D-01  6.83D-01  5.84D-01
 E= -3876.62227986365     Delta-E=       -0.000265096534 Rises=F Damp=F
 DIIS: error= 1.27D-04 at cycle   9 NSaved=   9.
 NSaved= 9 IEnMin= 9 EnMin= -3876.62227986365     IErMin= 9 ErrMin= 1.27D-04
 ErrMax= 1.27D-04  0.00D+00 EMaxC= 1.00D-01 BMatC= 2.37D-05 BMatP= 2.90D-04
 IDIUse=3 WtCom= 9.99D-01 WtEn= 1.27D-03
 Coeff-Com:  0.295D-01-0.404D-01-0.172D-03 0.684D-03-0.315D-01 0.531D-01
 Coeff-Com:  0.143D+00 0.295D+00 0.550D+00
 Coeff-En:   0.000D+00 0.000D+00 0.000D+00 0.000D+00 0.000D+00 0.000D+00
 Coeff-En:   0.000D+00 0.000D+00 0.100D+01
 Coeff:      0.295D-01-0.403D-01-0.171D-03 0.683D-03-0.315D-01 0.530D-01
 Coeff:      0.143D+00 0.295D+00 0.551D+00
 Gap=     0.152 Goal=   None    Shift=    0.000
 RMSDP=1.22D-05 MaxDP=6.64D-04 DE=-2.65D-04 OVMax= 1.42D-03

 Cycle  10  Pass 1  IDiag  1:
 RMSU=  9.43D-06    CP:  9.52D-01  2.03D+00  1.88D-01  2.52D-01  1.02D+00
                    CP:  6.88D-01  6.72D-01  6.34D-01  6.99D-01
 E= -3876.62229978480     Delta-E=       -0.000019921148 Rises=F Damp=F
 DIIS: error= 8.67D-05 at cycle  10 NSaved=  10.
 NSaved=10 IEnMin=10 EnMin= -3876.62229978480     IErMin=10 ErrMin= 8.67D-05
 ErrMax= 8.67D-05  0.00D+00 EMaxC= 1.00D-01 BMatC= 6.60D-06 BMatP= 2.37D-05
 IDIUse=1 WtCom= 1.00D+00 WtEn= 0.00D+00
 Coeff-Com:  0.780D-02-0.103D-01-0.442D-03 0.496D-03-0.915D-02 0.102D-01
 Coeff-Com:  0.327D-01 0.101D+00 0.346D+00 0.522D+00
 Coeff:      0.780D-02-0.103D-01-0.442D-03 0.496D-03-0.915D-02 0.102D-01
 Coeff:      0.327D-01 0.101D+00 0.346D+00 0.522D+00
 Gap=     0.153 Goal=   None    Shift=    0.000
 RMSDP=4.71D-06 MaxDP=3.02D-04 DE=-1.99D-05 OVMax= 4.53D-04

 Cycle  11  Pass 1  IDiag  1:
 RMSU=  2.22D-06    CP:  9.52D-01  2.03D+00  1.88D-01  2.52D-01  1.02D+00
                    CP:  6.88D-01  6.76D-01  6.36D-01  7.87D-01  6.28D-01
 E= -3876.62230456811     Delta-E=       -0.000004783318 Rises=F Damp=F
 DIIS: error= 7.95D-05 at cycle  11 NSaved=  11.
 NSaved=11 IEnMin=11 EnMin= -3876.62230456811     IErMin=11 ErrMin= 7.95D-05
 ErrMax= 7.95D-05  0.00D+00 EMaxC= 1.00D-01 BMatC= 2.20D-06 BMatP= 6.60D-06
 IDIUse=1 WtCom= 1.00D+00 WtEn= 0.00D+00
 Coeff-Com:  0.171D-02-0.212D-02-0.350D-03 0.211D-03-0.206D-02 0.312D-02
 Coeff-Com:  0.865D-02 0.341D-01 0.154D+00 0.291D+00 0.512D+00
 Coeff:      0.171D-02-0.212D-02-0.350D-03 0.211D-03-0.206D-02 0.312D-02
 Coeff:      0.865D-02 0.341D-01 0.154D+00 0.291D+00 0.512D+00
 Gap=     0.153 Goal=   None    Shift=    0.000
 RMSDP=1.80D-06 MaxDP=1.57D-04 DE=-4.78D-06 OVMax= 1.58D-04

 Cycle  12  Pass 1  IDiag  1:
 RMSU=  9.76D-07    CP:  9.52D-01  2.03D+00  1.88D-01  2.52D-01  1.02D+00
                    CP:  6.88D-01  6.75D-01  6.38D-01  7.87D-01  6.68D-01
                    CP:  7.36D-01
 E= -3876.62230574553     Delta-E=       -0.000001177412 Rises=F Damp=F
 DIIS: error= 3.99D-05 at cycle  12 NSaved=  12.
 NSaved=12 IEnMin=12 EnMin= -3876.62230574553     IErMin=12 ErrMin= 3.99D-05
 ErrMax= 3.99D-05  0.00D+00 EMaxC= 1.00D-01 BMatC= 4.94D-07 BMatP= 2.20D-06
 IDIUse=1 WtCom= 1.00D+00 WtEn= 0.00D+00
 Coeff-Com: -0.167D-03 0.254D-03-0.204D-03 0.553D-04 0.346D-03 0.120D-02
 Coeff-Com:  0.129D-02 0.542D-02 0.358D-01 0.799D-01 0.230D+00 0.646D+00
 Coeff:     -0.167D-03 0.254D-03-0.204D-03 0.553D-04 0.346D-03 0.120D-02
 Coeff:      0.129D-02 0.542D-02 0.358D-01 0.799D-01 0.230D+00 0.646D+00
 Gap=     0.153 Goal=   None    Shift=    0.000
 RMSDP=1.18D-06 MaxDP=8.67D-05 DE=-1.18D-06 OVMax= 1.18D-04

 Cycle  13  Pass 1  IDiag  1:
 RMSU=  4.28D-07    CP:  9.52D-01  2.03D+00  1.88D-01  2.52D-01  1.02D+00
                    CP:  6.87D-01  6.74D-01  6.39D-01  7.95D-01  6.77D-01
                    CP:  8.61D-01  9.96D-01
 E= -3876.62230603852     Delta-E=       -0.000000292996 Rises=F Damp=F
 DIIS: error= 1.37D-05 at cycle  13 NSaved=  13.
 NSaved=13 IEnMin=13 EnMin= -3876.62230603852     IErMin=13 ErrMin= 1.37D-05
 ErrMax= 1.37D-05  0.00D+00 EMaxC= 1.00D-01 BMatC= 5.66D-08 BMatP= 4.94D-07
 IDIUse=1 WtCom= 1.00D+00 WtEn= 0.00D+00
 Coeff-Com: -0.410D-03 0.513D-03-0.568D-04-0.102D-04 0.607D-03 0.205D-03
 Coeff-Com: -0.739D-03-0.435D-02-0.171D-01-0.312D-01-0.326D-01 0.312D+00
 Coeff-Com:  0.774D+00
 Coeff:     -0.410D-03 0.513D-03-0.568D-04-0.102D-04 0.607D-03 0.205D-03
 Coeff:     -0.739D-03-0.435D-02-0.171D-01-0.312D-01-0.326D-01 0.312D+00
 Coeff:      0.774D+00
 Gap=     0.153 Goal=   None    Shift=    0.000
 RMSDP=7.77D-07 MaxDP=6.34D-05 DE=-2.93D-07 OVMax= 9.50D-05

 Cycle  14  Pass 1  IDiag  1:
 RMSU=  2.43D-07    CP:  9.52D-01  2.03D+00  1.87D-01  2.53D-01  1.02D+00
                    CP:  6.87D-01  6.74D-01  6.39D-01  8.01D-01  6.95D-01
                    CP:  9.12D-01  1.28D+00  1.17D+00
 E= -3876.62230608580     Delta-E=       -0.000000047274 Rises=F Damp=F
 DIIS: error= 1.90D-06 at cycle  14 NSaved=  14.
 NSaved=14 IEnMin=14 EnMin= -3876.62230608580     IErMin=14 ErrMin= 1.90D-06
 ErrMax= 1.90D-06  0.00D+00 EMaxC= 1.00D-01 BMatC= 2.52D-09 BMatP= 5.66D-08
 IDIUse=1 WtCom= 1.00D+00 WtEn= 0.00D+00
 Coeff-Com: -0.130D-03 0.153D-03 0.977D-05-0.127D-04 0.156D-03-0.193D-03
 Coeff-Com: -0.568D-03-0.315D-02-0.162D-01-0.348D-01-0.776D-01 0.199D-02
 Coeff-Com:  0.459D+00 0.671D+00
 Coeff:     -0.130D-03 0.153D-03 0.977D-05-0.127D-04 0.156D-03-0.193D-03
 Coeff:     -0.568D-03-0.315D-02-0.162D-01-0.348D-01-0.776D-01 0.199D-02
 Coeff:      0.459D+00 0.671D+00
 Gap=     0.153 Goal=   None    Shift=    0.000
 RMSDP=2.74D-07 MaxDP=2.57D-05 DE=-4.73D-08 OVMax= 5.72D-05

 Cycle  15  Pass 1  IDiag  1:
 RMSU=  1.20D-07    CP:  9.52D-01  2.03D+00  1.87D-01  2.53D-01  1.02D+00
                    CP:  6.87D-01  6.74D-01  6.39D-01  8.03D-01  6.98D-01
                    CP:  9.53D-01  1.39D+00  1.49D+00  1.04D+00
 E= -3876.62230609216     Delta-E=       -0.000000006361 Rises=F Damp=F
 DIIS: error= 2.08D-06 at cycle  15 NSaved=  15.
 NSaved=15 IEnMin=15 EnMin= -3876.62230609216     IErMin=14 ErrMin= 1.90D-06
 ErrMax= 2.08D-06  0.00D+00 EMaxC= 1.00D-01 BMatC= 1.61D-09 BMatP= 2.52D-09
 IDIUse=1 WtCom= 1.00D+00 WtEn= 0.00D+00
 Coeff-Com: -0.234D-04 0.282D-04 0.144D-04-0.535D-05-0.182D-05-0.202D-03
 Coeff-Com: -0.320D-03-0.112D-02-0.557D-02-0.122D-01-0.311D-01-0.357D-01
 Coeff-Com:  0.112D+00 0.324D+00 0.651D+00
 Coeff:     -0.234D-04 0.282D-04 0.144D-04-0.535D-05-0.182D-05-0.202D-03
 Coeff:     -0.320D-03-0.112D-02-0.557D-02-0.122D-01-0.311D-01-0.357D-01
 Coeff:      0.112D+00 0.324D+00 0.651D+00
 Gap=     0.153 Goal=   None    Shift=    0.000
 RMSDP=1.13D-07 MaxDP=1.35D-05 DE=-6.36D-09 OVMax= 2.80D-05

 Cycle  16  Pass 1  IDiag  1:
 RMSU=  6.40D-08    CP:  9.52D-01  2.03D+00  1.87D-01  2.53D-01  1.02D+00
                    CP:  6.87D-01  6.74D-01  6.39D-01  8.03D-01  6.98D-01
                    CP:  9.65D-01  1.44D+00  1.59D+00  1.23D+00  1.20D+00
 E= -3876.62230609436     Delta-E=       -0.000000002206 Rises=F Damp=F
 DIIS: error= 1.08D-06 at cycle  16 NSaved=  16.
 NSaved=16 IEnMin=16 EnMin= -3876.62230609436     IErMin=16 ErrMin= 1.08D-06
 ErrMax= 1.08D-06  0.00D+00 EMaxC= 1.00D-01 BMatC= 4.83D-10 BMatP= 1.61D-09
 IDIUse=1 WtCom= 1.00D+00 WtEn= 0.00D+00
 Coeff-Com:  0.294D-04-0.341D-04 0.656D-05 0.119D-05-0.475D-04-0.539D-04
 Coeff-Com: -0.222D-04 0.486D-03 0.302D-02 0.728D-02 0.161D-01-0.100D-01
 Coeff-Com: -0.128D+00-0.124D+00 0.297D+00 0.938D+00
 Coeff:      0.294D-04-0.341D-04 0.656D-05 0.119D-05-0.475D-04-0.539D-04
 Coeff:     -0.222D-04 0.486D-03 0.302D-02 0.728D-02 0.161D-01-0.100D-01
 Coeff:     -0.128D+00-0.124D+00 0.297D+00 0.938D+00
 Gap=     0.153 Goal=   None    Shift=    0.000
 RMSDP=1.20D-07 MaxDP=1.56D-05 DE=-2.21D-09 OVMax= 3.02D-05

 Cycle  17  Pass 1  IDiag  1:
 RMSU=  3.61D-08    CP:  9.52D-01  2.03D+00  1.87D-01  2.53D-01  1.02D+00
                    CP:  6.87D-01  6.74D-01  6.39D-01  8.04D-01  6.99D-01
                    CP:  9.77D-01  1.49D+00  1.69D+00  1.41D+00  1.71D+00
                    CP:  1.41D+00
 E= -3876.62230609559     Delta-E=       -0.000000001231 Rises=F Damp=F
 DIIS: error= 3.49D-07 at cycle  17 NSaved=  17.
 NSaved=17 IEnMin=17 EnMin= -3876.62230609559     IErMin=17 ErrMin= 3.49D-07
 ErrMax= 3.49D-07  0.00D+00 EMaxC= 1.00D-01 BMatC= 5.84D-11 BMatP= 4.83D-10
 IDIUse=1 WtCom= 1.00D+00 WtEn= 0.00D+00
 Coeff-Com:  0.248D-04-0.298D-04 0.787D-06 0.184D-05-0.216D-04 0.535D-04
 Coeff-Com:  0.107D-03 0.625D-03 0.340D-02 0.818D-02 0.202D-01 0.717D-02
 Coeff-Com: -0.120D+00-0.197D+00-0.678D-01 0.583D+00 0.762D+00
 Coeff:      0.248D-04-0.298D-04 0.787D-06 0.184D-05-0.216D-04 0.535D-04
 Coeff:      0.107D-03 0.625D-03 0.340D-02 0.818D-02 0.202D-01 0.717D-02
 Coeff:     -0.120D+00-0.197D+00-0.678D-01 0.583D+00 0.762D+00
 Gap=     0.153 Goal=   None    Shift=    0.000
 RMSDP=7.35D-08 MaxDP=9.06D-06 DE=-1.23D-09 OVMax= 1.90D-05

 Cycle  18  Pass 1  IDiag  1:
 RMSU=  1.57D-08    CP:  9.52D-01  2.03D+00  1.87D-01  2.53D-01  1.02D+00
                    CP:  6.87D-01  6.74D-01  6.39D-01  8.04D-01  7.00D-01
                    CP:  9.86D-01  1.51D+00  1.77D+00  1.53D+00  1.99D+00
                    CP:  1.84D+00  1.01D+00
 E= -3876.62230609598     Delta-E=       -0.000000000382 Rises=F Damp=F
 DIIS: error= 2.26D-07 at cycle  18 NSaved=  18.
 NSaved=18 IEnMin=18 EnMin= -3876.62230609598     IErMin=18 ErrMin= 2.26D-07
 ErrMax= 2.26D-07  0.00D+00 EMaxC= 1.00D-01 BMatC= 2.84D-11 BMatP= 5.84D-11
 IDIUse=1 WtCom= 1.00D+00 WtEn= 0.00D+00
 Coeff-Com:  0.444D-05-0.495D-05-0.237D-06 0.341D-06 0.224D-05 0.406D-04
 Coeff-Com:  0.562D-04 0.191D-03 0.102D-02 0.262D-02 0.709D-02 0.446D-02
 Coeff-Com: -0.400D-01-0.790D-01-0.870D-01 0.146D+00 0.415D+00 0.630D+00
 Coeff:      0.444D-05-0.495D-05-0.237D-06 0.341D-06 0.224D-05 0.406D-04
 Coeff:      0.562D-04 0.191D-03 0.102D-02 0.262D-02 0.709D-02 0.446D-02
 Coeff:     -0.400D-01-0.790D-01-0.870D-01 0.146D+00 0.415D+00 0.630D+00
 Gap=     0.153 Goal=   None    Shift=    0.000
 RMSDP=1.96D-08 MaxDP=2.21D-06 DE=-3.82D-10 OVMax= 4.54D-06

 Cycle  19  Pass 1  IDiag  1:
 RMSU=  6.30D-09    CP:  9.52D-01  2.03D+00  1.87D-01  2.53D-01  1.02D+00
                    CP:  6.87D-01  6.74D-01  6.39D-01  8.04D-01  7.00D-01
                    CP:  9.89D-01  1.52D+00  1.78D+00  1.56D+00  2.06D+00
                    CP:  1.91D+00  1.11D+00  8.48D-01
 E= -3876.62230609580     Delta-E=        0.000000000176 Rises=F Damp=F
 DIIS: error= 5.98D-08 at cycle  19 NSaved=  19.
 NSaved=19 IEnMin=18 EnMin= -3876.62230609598     IErMin=19 ErrMin= 5.98D-08
 ErrMax= 5.98D-08  0.00D+00 EMaxC= 1.00D-01 BMatC= 2.44D-12 BMatP= 2.84D-11
 IDIUse=1 WtCom= 1.00D+00 WtEn= 0.00D+00
 Coeff-Com: -0.229D-06 0.496D-06-0.188D-06-0.207D-07 0.395D-05 0.177D-04
 Coeff-Com:  0.204D-04 0.398D-04 0.207D-03 0.601D-03 0.182D-02 0.149D-02
 Coeff-Com: -0.104D-01-0.238D-01-0.411D-01 0.228D-01 0.155D+00 0.354D+00
 Coeff-Com:  0.539D+00
 Coeff:     -0.229D-06 0.496D-06-0.188D-06-0.207D-07 0.395D-05 0.177D-04
 Coeff:      0.204D-04 0.398D-04 0.207D-03 0.601D-03 0.182D-02 0.149D-02
 Coeff:     -0.104D-01-0.238D-01-0.411D-01 0.228D-01 0.155D+00 0.354D+00
 Coeff:      0.539D+00
 Gap=     0.153 Goal=   None    Shift=    0.000
 RMSDP=4.16D-09 MaxDP=3.93D-07 DE= 1.76D-10 OVMax= 8.04D-07

 SCF Done:  E(RPBE1PBE) =  -3876.62230610     A.U. after   19 cycles
            NFock= 19  Conv=0.42D-08     -V/T= 2.0061
 KE= 3.853306278311D+03 PE=-2.569014879919D+04 EE= 9.668483057411D+03
 Leave Link  502 at Fri Sep 29 19:35:15 2023, MaxMem=  4026531840 cpu:            5757.9 elap:             195.2
 (Enter /sw/arch/RHEL8/EB_production/2022/software/Gaussian/g16.c02/l508.exe)
 QCSCF skips out because SCF is already converged.
 Leave Link  508 at Fri Sep 29 19:35:15 2023, MaxMem=  4026531840 cpu:               0.0 elap:               0.0
 (Enter /sw/arch/RHEL8/EB_production/2022/software/Gaussian/g16.c02/l601.exe)
 Copying SCF densities to generalized density rwf, IOpCl= 0 IROHF=0.
 Hyperfine terms turned off by default for NAtoms > 100.

 **********************************************************************

            Population analysis using the SCF Density.

 **********************************************************************

 Alpha  occ. eigenvalues -- -256.34262 -77.18259 -77.17582 -30.11729 -25.96580
 Alpha  occ. eigenvalues --  -25.94686 -25.94673 -19.23121 -19.22194 -10.28817
 Alpha  occ. eigenvalues --  -10.28220 -10.27556 -10.27350 -10.24628 -10.24570
 Alpha  occ. eigenvalues --  -10.24439 -10.24385 -10.24059 -10.24029 -10.23892
 Alpha  occ. eigenvalues --  -10.23789 -10.23731 -10.23655 -10.23564 -10.23560
 Alpha  occ. eigenvalues --  -10.23556 -10.23542 -10.23507 -10.23473 -10.23457
 Alpha  occ. eigenvalues --  -10.23452 -10.23448 -10.23423 -10.23413 -10.23401
 Alpha  occ. eigenvalues --  -10.23336 -10.23186 -10.23024 -10.22893 -10.22788
 Alpha  occ. eigenvalues --  -10.22782 -10.22678 -10.22668 -10.22475 -10.22452
 Alpha  occ. eigenvalues --  -10.22449 -10.22376 -10.22372 -10.22369 -10.22080
 Alpha  occ. eigenvalues --  -10.22061 -10.22056 -10.22010 -10.21910 -10.21442
 Alpha  occ. eigenvalues --   -6.59285  -6.58644  -4.73342  -4.73334  -4.72802
 Alpha  occ. eigenvalues --   -4.72704  -4.72678  -4.72146  -3.44922  -2.23915
 Alpha  occ. eigenvalues --   -2.19152  -2.19128  -1.08406  -1.07430  -0.91443
 Alpha  occ. eigenvalues --   -0.89571  -0.87977  -0.87682  -0.87111  -0.86930
 Alpha  occ. eigenvalues --   -0.81112  -0.80506  -0.79658  -0.79603  -0.79304
 Alpha  occ. eigenvalues --   -0.79157  -0.77719  -0.77098  -0.76686  -0.73622
 Alpha  occ. eigenvalues --   -0.73175  -0.72503  -0.72226  -0.72094  -0.71228
 Alpha  occ. eigenvalues --   -0.70395  -0.69931  -0.69699  -0.69294  -0.69125
 Alpha  occ. eigenvalues --   -0.68706  -0.68652  -0.67843  -0.66100  -0.63695
 Alpha  occ. eigenvalues --   -0.62080  -0.60017  -0.59933  -0.59468  -0.58902
 Alpha  occ. eigenvalues --   -0.58349  -0.57798  -0.57058  -0.55658  -0.55126
 Alpha  occ. eigenvalues --   -0.54798  -0.54564  -0.54011  -0.53814  -0.53056
 Alpha  occ. eigenvalues --   -0.51804  -0.51579  -0.51212  -0.50516  -0.50064
 Alpha  occ. eigenvalues --   -0.49960  -0.48791  -0.48758  -0.48265  -0.47972
 Alpha  occ. eigenvalues --   -0.46720  -0.45513  -0.45386  -0.44778  -0.44298
 Alpha  occ. eigenvalues --   -0.43959  -0.43674  -0.43609  -0.43585  -0.43384
 Alpha  occ. eigenvalues --   -0.43232  -0.42993  -0.42797  -0.42721  -0.42482
 Alpha  occ. eigenvalues --   -0.42431  -0.42278  -0.42132  -0.42059  -0.41924
 Alpha  occ. eigenvalues --   -0.41831  -0.41483  -0.41396  -0.41168  -0.41113
 Alpha  occ. eigenvalues --   -0.41044  -0.40922  -0.40691  -0.40489  -0.40297
 Alpha  occ. eigenvalues --   -0.40176  -0.39660  -0.38956  -0.38760  -0.38710
 Alpha  occ. eigenvalues --   -0.38521  -0.38284  -0.38176  -0.37921  -0.37719
 Alpha  occ. eigenvalues --   -0.37461  -0.36872  -0.36675  -0.36469  -0.36212
 Alpha  occ. eigenvalues --   -0.35818  -0.35706  -0.35645  -0.35293  -0.34805
 Alpha  occ. eigenvalues --   -0.34733  -0.34635  -0.33893  -0.33036  -0.32689
 Alpha  occ. eigenvalues --   -0.31857  -0.29144  -0.28311  -0.28031  -0.27668
 Alpha  occ. eigenvalues --   -0.27206  -0.26534  -0.25671  -0.25620  -0.25461
 Alpha  occ. eigenvalues --   -0.25182  -0.24814  -0.24584  -0.24480  -0.24363
 Alpha  occ. eigenvalues --   -0.24074  -0.21877  -0.21060  -0.20759  -0.16964
 Alpha virt. eigenvalues --   -0.01709  -0.01424  -0.00579  -0.00523  -0.00067
 Alpha virt. eigenvalues --    0.00029   0.00514   0.00688   0.00889   0.01177
 Alpha virt. eigenvalues --    0.04108   0.04695   0.05717   0.06455   0.06502
 Alpha virt. eigenvalues --    0.06912   0.07259   0.07671   0.07783   0.08000
 Alpha virt. eigenvalues --    0.08303   0.08506   0.08960   0.09234   0.09631
 Alpha virt. eigenvalues --    0.09832   0.10078   0.10374   0.10846   0.11125
 Alpha virt. eigenvalues --    0.11202   0.11486   0.11686   0.11776   0.12047
 Alpha virt. eigenvalues --    0.12237   0.12424   0.12806   0.12872   0.13311
 Alpha virt. eigenvalues --    0.13530   0.13688   0.13827   0.14062   0.14464
 Alpha virt. eigenvalues --    0.14661   0.14847   0.14902   0.15030   0.15076
 Alpha virt. eigenvalues --    0.15393   0.15402   0.15513   0.16082   0.16162
 Alpha virt. eigenvalues --    0.16532   0.16652   0.16958   0.17278   0.17612
 Alpha virt. eigenvalues --    0.17718   0.17903   0.18034   0.18238   0.18479
 Alpha virt. eigenvalues --    0.18632   0.18969   0.19194   0.19650   0.19803
 Alpha virt. eigenvalues --    0.19900   0.20325   0.20570   0.20821   0.20897
 Alpha virt. eigenvalues --    0.21682   0.21845   0.22348   0.22609   0.22894
 Alpha virt. eigenvalues --    0.23404   0.24105   0.24421   0.24559   0.24800
 Alpha virt. eigenvalues --    0.25127   0.25763   0.26107   0.26311   0.26620
 Alpha virt. eigenvalues --    0.27133   0.27344   0.28209   0.28552   0.29012
 Alpha virt. eigenvalues --    0.29711   0.29966   0.30362   0.30731   0.31406
 Alpha virt. eigenvalues --    0.31574   0.32000   0.32296   0.32777   0.32931
 Alpha virt. eigenvalues --    0.33382   0.33472   0.33891   0.34281   0.34571
 Alpha virt. eigenvalues --    0.35057   0.35112   0.35302   0.35582   0.35983
 Alpha virt. eigenvalues --    0.36639   0.37163   0.37584   0.37896   0.38696
 Alpha virt. eigenvalues --    0.39209   0.39665   0.40005   0.40319   0.41058
 Alpha virt. eigenvalues --    0.41374   0.41787   0.42067   0.42647   0.43015
 Alpha virt. eigenvalues --    0.43158   0.43747   0.43798   0.44108   0.44440
 Alpha virt. eigenvalues --    0.44594   0.44945   0.45301   0.45516   0.45671
 Alpha virt. eigenvalues --    0.45999   0.46247   0.46519   0.46714   0.46941
 Alpha virt. eigenvalues --    0.47186   0.47447   0.47473   0.47607   0.47792
 Alpha virt. eigenvalues --    0.48152   0.48340   0.48622   0.48716   0.48915
 Alpha virt. eigenvalues --    0.49374   0.49435   0.49835   0.49999   0.50048
 Alpha virt. eigenvalues --    0.50330   0.50829   0.51231   0.51550   0.52024
 Alpha virt. eigenvalues --    0.52240   0.52767   0.52890   0.53439   0.53959
 Alpha virt. eigenvalues --    0.54301   0.54535   0.54691   0.55347   0.55604
 Alpha virt. eigenvalues --    0.55819   0.56124   0.56462   0.56621   0.57162
 Alpha virt. eigenvalues --    0.57503   0.57882   0.58418   0.58939   0.59438
 Alpha virt. eigenvalues --    0.59527   0.59796   0.60369   0.60846   0.61423
 Alpha virt. eigenvalues --    0.61707   0.62281   0.62556   0.62651   0.63223
 Alpha virt. eigenvalues --    0.63659   0.63935   0.64151   0.64544   0.65129
 Alpha virt. eigenvalues --    0.65159   0.65342   0.65748   0.65824   0.66163
 Alpha virt. eigenvalues --    0.66466   0.66614   0.66826   0.66996   0.67209
 Alpha virt. eigenvalues --    0.67384   0.67457   0.67891   0.68076   0.68219
 Alpha virt. eigenvalues --    0.68342   0.68419   0.68702   0.68927   0.69051
 Alpha virt. eigenvalues --    0.69320   0.69412   0.69628   0.69832   0.69905
 Alpha virt. eigenvalues --    0.70213   0.70284   0.70443   0.70698   0.70807
 Alpha virt. eigenvalues --    0.71079   0.71112   0.71235   0.71367   0.71435
 Alpha virt. eigenvalues --    0.71687   0.71765   0.72005   0.72028   0.72155
 Alpha virt. eigenvalues --    0.72222   0.72354   0.72741   0.72865   0.73048
 Alpha virt. eigenvalues --    0.73195   0.73469   0.73556   0.73820   0.73933
 Alpha virt. eigenvalues --    0.74212   0.74452   0.74710   0.74875   0.75021
 Alpha virt. eigenvalues --    0.75447   0.75522   0.75587   0.75701   0.75979
 Alpha virt. eigenvalues --    0.76255   0.76342   0.76641   0.76742   0.76944
 Alpha virt. eigenvalues --    0.77170   0.77385   0.77548   0.77789   0.78039
 Alpha virt. eigenvalues --    0.78186   0.78472   0.78598   0.78796   0.79116
 Alpha virt. eigenvalues --    0.79522   0.79620   0.79812   0.80162   0.80463
 Alpha virt. eigenvalues --    0.80658   0.80952   0.81346   0.81433   0.81843
 Alpha virt. eigenvalues --    0.81978   0.82177   0.82531   0.83130   0.83460
 Alpha virt. eigenvalues --    0.83533   0.83769   0.84083   0.84358   0.84667
 Alpha virt. eigenvalues --    0.85003   0.85494   0.85665   0.86134   0.86432
 Alpha virt. eigenvalues --    0.86672   0.86892   0.87472   0.87899   0.88163
 Alpha virt. eigenvalues --    0.88803   0.88858   0.89450   0.89869   0.90067
 Alpha virt. eigenvalues --    0.90214   0.91005   0.91200   0.92180   0.92691
 Alpha virt. eigenvalues --    0.92849   0.93525   0.94015   0.94573   0.94807
 Alpha virt. eigenvalues --    0.95183   0.95863   0.96318   0.96876   0.97098
 Alpha virt. eigenvalues --    0.97760   0.98157   0.98750   0.99400   0.99814
 Alpha virt. eigenvalues --    1.00446   1.01094   1.01466   1.02187   1.02936
 Alpha virt. eigenvalues --    1.04631   1.04925   1.05699   1.05934   1.06884
 Alpha virt. eigenvalues --    1.07498   1.08329   1.09354   1.09732   1.10105
 Alpha virt. eigenvalues --    1.11014   1.11241   1.12913   1.13577   1.13950
 Alpha virt. eigenvalues --    1.15109   1.15715   1.15946   1.17250   1.17654
 Alpha virt. eigenvalues --    1.18036   1.19167   1.19512   1.19775   1.20747
 Alpha virt. eigenvalues --    1.21758   1.21997   1.22995   1.23338   1.23675
 Alpha virt. eigenvalues --    1.24398   1.26182   1.26416   1.27043   1.27351
 Alpha virt. eigenvalues --    1.27701   1.28489   1.28632   1.29114   1.29966
 Alpha virt. eigenvalues --    1.30196   1.31202   1.31677   1.32036   1.32319
 Alpha virt. eigenvalues --    1.32604   1.33214   1.33957   1.34854   1.35645
 Alpha virt. eigenvalues --    1.36114   1.36904   1.37516   1.37934   1.38325
 Alpha virt. eigenvalues --    1.38565   1.39469   1.39737   1.39984   1.40280
 Alpha virt. eigenvalues --    1.40839   1.40926   1.41602   1.41895   1.42517
 Alpha virt. eigenvalues --    1.43511   1.44931   1.45155   1.48920   1.49912
 Alpha virt. eigenvalues --    1.50746   1.50784   1.51017   1.51500   1.51824
 Alpha virt. eigenvalues --    1.52700   1.55520   1.56015   1.58038   1.59637
 Alpha virt. eigenvalues --    1.61356   1.62107   1.62644   1.62811   1.63781
 Alpha virt. eigenvalues --    1.64800   1.65481   1.65971   1.66120   1.68103
 Alpha virt. eigenvalues --    1.68674   1.69464   1.69851   1.71635   1.73493
 Alpha virt. eigenvalues --    1.75574   1.75892   1.76753   1.77532   1.78705
 Alpha virt. eigenvalues --    1.79266   1.79462   1.79925   1.80016   1.80663
 Alpha virt. eigenvalues --    1.80709   1.80891   1.81096   1.81462   1.81963
 Alpha virt. eigenvalues --    1.82238   1.82429   1.83098   1.83458   1.84134
 Alpha virt. eigenvalues --    1.84401   1.86771   1.87924   1.88479   1.88783
 Alpha virt. eigenvalues --    1.89115   1.89446   1.89937   1.90168   1.90301
 Alpha virt. eigenvalues --    1.90867   1.90985   1.91558   1.91784   1.92350
 Alpha virt. eigenvalues --    1.92603   1.92950   1.93522   1.93845   1.94322
 Alpha virt. eigenvalues --    1.94544   1.94963   1.95126   1.95451   1.96128
 Alpha virt. eigenvalues --    1.96339   1.96998   1.97662   1.98523   1.98753
 Alpha virt. eigenvalues --    1.99534   2.00606   2.01730   2.02569   2.02630
 Alpha virt. eigenvalues --    2.03212   2.04112   2.04491   2.04701   2.05110
 Alpha virt. eigenvalues --    2.05323   2.05782   2.06136   2.06319   2.06657
 Alpha virt. eigenvalues --    2.06871   2.07501   2.07989   2.08062   2.08826
 Alpha virt. eigenvalues --    2.08953   2.09258   2.09656   2.11260   2.11349
 Alpha virt. eigenvalues --    2.11588   2.11788   2.12182   2.12599   2.13021
 Alpha virt. eigenvalues --    2.13669   2.13883   2.14228   2.14667   2.15032
 Alpha virt. eigenvalues --    2.15837   2.16190   2.17057   2.20052   2.20392
 Alpha virt. eigenvalues --    2.21052   2.21160   2.21574   2.21770   2.22387
 Alpha virt. eigenvalues --    2.22465   2.23137   2.23328   2.23450   2.23689
 Alpha virt. eigenvalues --    2.23965   2.24444   2.24924   2.26338   2.26820
 Alpha virt. eigenvalues --    2.28315   2.28656   2.29279   2.29410   2.29591
 Alpha virt. eigenvalues --    2.29852   2.30128   2.30320   2.30803   2.31140
 Alpha virt. eigenvalues --    2.31500   2.31730   2.31962   2.32074   2.32741
 Alpha virt. eigenvalues --    2.32976   2.33840   2.34372   2.34608   2.35051
 Alpha virt. eigenvalues --    2.35376   2.35698   2.35989   2.36321   2.36340
 Alpha virt. eigenvalues --    2.38279   2.39903   2.42368   2.43119   2.44716
 Alpha virt. eigenvalues --    2.44780   2.45524   2.49350   2.49652   2.49749
 Alpha virt. eigenvalues --    2.50316   2.50906   2.51419   2.51601   2.51957
 Alpha virt. eigenvalues --    2.52937   2.56177   2.56758   2.57763   2.58511
 Alpha virt. eigenvalues --    2.59230   2.59651   2.61611   2.62965   2.63823
 Alpha virt. eigenvalues --    2.64059   2.64246   2.65222   2.65350   2.66075
 Alpha virt. eigenvalues --    2.66524   2.66841   2.67324   2.67490   2.69010
 Alpha virt. eigenvalues --    2.70735   2.74747   2.75317   2.75907   2.76684
 Alpha virt. eigenvalues --    2.77023   2.78040   2.78605   2.79839   2.79912
 Alpha virt. eigenvalues --    2.80317   2.80539   2.81195   2.83318   2.83895
 Alpha virt. eigenvalues --    2.84409   2.85013   2.87600   2.88565   2.89357
 Alpha virt. eigenvalues --    2.89703   2.92559   2.94877   2.96064   2.97040
 Alpha virt. eigenvalues --    2.97971   3.00079   3.01083   3.04447   3.08601
 Alpha virt. eigenvalues --    3.10146   3.25300   3.26101   3.31328   3.32083
 Alpha virt. eigenvalues --    3.37708   3.37852   3.38595   3.38884   3.60407
 Alpha virt. eigenvalues --    3.61201
          Condensed to atoms (all electrons):
 Mulliken charges:
               1
     1  P    0.401927
     2  C   -0.083003
     3  C   -0.214219
     4  C   -0.017650
     5  C    0.095408
     6  C   -0.019872
     7  C   -0.219029
     8  C   -0.073110
     9  C   -0.251317
    10  C   -0.008977
    11  C    0.084048
    12  C   -0.005140
    13  C   -0.242441
    14  P    0.335812
    15  C   -0.346729
    16  C   -0.306916
    17  C   -0.141421
    18  C   -0.025536
    19  C   -0.068478
    20  C   -0.044033
    21  C   -0.105994
    22  H    0.102979
    23  H    0.099985
    24  H    0.109866
    25  H    0.093916
    26  H    0.167626
    27  H    0.137985
    28  H    0.152329
    29  H    0.145858
    30  H    0.118225
    31  C   -0.181077
    32  C    0.018044
    33  C   -0.191393
    34  C   -0.113066
    35  C   -0.159753
    36  C    0.017582
    37  H    0.100131
    38  H    0.111267
    39  C   -0.196175
    40  C    0.021694
    41  C   -0.201400
    42  C   -0.068169
    43  C   -0.211088
    44  C    0.032362
    45  H    0.096204
    46  H    0.081219
    47  Fe  -0.213653
    48  C   -0.086084
    49  C   -0.069125
    50  C   -0.095549
    51  C   -0.111366
    52  C   -0.086317
    53  H    0.111624
    54  H    0.106971
    55  H    0.147736
    56  H    0.110181
    57  H    0.065114
    58  H    0.060849
    59  C   -0.291446
    60  H    0.139612
    61  H    0.129089
    62  H    0.136210
    63  C   -0.310663
    64  H    0.128545
    65  H    0.154434
    66  H    0.146479
    67  C   -0.292963
    68  H    0.130551
    69  H    0.145530
    70  H    0.128883
    71  C   -0.307908
    72  H    0.133241
    73  H    0.137868
    74  H    0.142463
    75  H    0.105090
    76  H    0.097872
    77  H    0.112053
    78  O   -0.362529
    79  O   -0.359977
    80  C   -0.317091
    81  H    0.147965
    82  H    0.146993
    83  H    0.148509
    84  C   -0.281829
    85  H    0.150763
    86  H    0.135691
    87  H    0.126220
    88  C   -0.127927
    89  H    0.120678
    90  H    0.141495
    91  H    0.120793
    92  C   -0.122201
    93  H    0.116005
    94  H    0.137590
    95  H    0.116209
    96  C   -0.300314
    97  H    0.146131
    98  H    0.140248
    99  H    0.131664
   100  C   -0.300000
   101  H    0.146517
   102  H    0.130834
   103  H    0.133763
 Sum of Mulliken charges =  -0.00000
 Mulliken charges with hydrogens summed into heavy atoms:
               1
     1  P    0.401927
     2  C   -0.083003
     3  C   -0.111240
     4  C   -0.017650
     5  C    0.095408
     6  C   -0.019872
     7  C   -0.119044
     8  C   -0.073110
     9  C   -0.141451
    10  C   -0.008977
    11  C    0.084048
    12  C   -0.005140
    13  C   -0.148525
    14  P    0.335812
    15  C   -0.179103
    16  C    0.129257
    17  C   -0.141421
    18  C   -0.025536
    19  C    0.029394
    20  C    0.061057
    21  C    0.012230
    31  C   -0.115963
    32  C    0.018044
    33  C   -0.091263
    34  C   -0.113066
    35  C   -0.048486
    36  C    0.017582
    39  C   -0.135326
    40  C    0.021694
    41  C   -0.105196
    42  C   -0.068169
    43  C   -0.129869
    44  C    0.032362
    47  Fe  -0.213653
    48  C    0.025540
    49  C    0.042928
    50  C    0.011422
    51  C    0.036371
    52  C    0.023864
    59  C    0.113464
    63  C    0.118796
    67  C    0.112001
    71  C    0.105664
    78  O   -0.362529
    79  O   -0.359977
    80  C    0.126375
    84  C    0.130845
    88  C    0.255039
    92  C    0.247603
    96  C    0.117729
   100  C    0.111113
 Electronic spatial extent (au):  <R**2>=          35306.7867
 Charge=             -0.0000 electrons
 Dipole moment (field-independent basis, Debye):
    X=              1.8920    Y=             -0.3039    Z=              0.1715  Tot=              1.9239
 Quadrupole moment (field-independent basis, Debye-Ang):
   XX=           -311.6415   YY=           -321.2190   ZZ=           -289.3843
   XY=             22.6283   XZ=             -6.4606   YZ=              2.9938
 Traceless Quadrupole moment (field-independent basis, Debye-Ang):
   XX=             -4.2266   YY=            -13.8041   ZZ=             18.0307
   XY=             22.6283   XZ=             -6.4606   YZ=              2.9938
 Octapole moment (field-independent basis, Debye-Ang**2):
  XXX=            286.1303  YYY=            -42.6403  ZZZ=            197.1254  XYY=            153.2059
  XXY=             19.0889  XXZ=            108.6608  XZZ=            128.3457  YZZ=            -19.5267
  YYZ=            136.2095  XYZ=            -29.6386
 Hexadecapole moment (field-independent basis, Debye-Ang**3):
 XXXX=         -18189.3176 YYYY=         -14723.8571 ZZZZ=         -12886.1585 XXXY=          -2191.3369
 XXXZ=           1787.0381 YYYX=          -2103.9382 YYYZ=          -1049.1268 ZZZX=           1269.9513
 ZZZY=          -1132.6267 XXYY=          -5423.1973 XXZZ=          -5110.6077 YYZZ=          -4721.0895
 XXYZ=           -383.2064 YYXZ=            750.4510 ZZXY=           -728.4060
 N-N= 8.291737157367D+03 E-N=-2.569014884274D+04  KE= 3.853306278311D+03
 Leave Link  601 at Fri Sep 29 19:35:15 2023, MaxMem=  4026531840 cpu:               0.8 elap:               0.2
 (Enter /sw/arch/RHEL8/EB_production/2022/software/Gaussian/g16.c02/l607.exe)
 ******************************Gaussian NBO Version 3.1******************************
             N A T U R A L   A T O M I C   O R B I T A L   A N D
          N A T U R A L   B O N D   O R B I T A L   A N A L Y S I S
 ******************************Gaussian NBO Version 3.1******************************
       /RESON  / : Allow strongly delocalized NBO set

 Analyzing the SCF density

 Job title: Cisa                                                            

 Storage needed:   2129454 in NPA,   2808725 in NBO (4026476529 available)


 NATURAL POPULATIONS:  Natural atomic orbital occupancies 
                                                          
   NAO  Atom  No  lang   Type(AO)    Occupancy      Energy
 ----------------------------------------------------------
     1    P    1  S      Cor( 1S)     1.99999     -76.24570
     2    P    1  S      Cor( 2S)     1.99856      -7.30525
     3    P    1  S      Val( 3S)     1.23596      -0.36456
     4    P    1  S      Ryd( 4S)     0.00528       0.75133
     5    P    1  px     Cor( 2p)     1.99984      -4.72136
     6    P    1  px     Val( 3p)     1.42607      -0.10261
     7    P    1  px     Ryd( 4p)     0.00741       0.90798
     8    P    1  py     Cor( 2p)     1.99975      -4.72376
     9    P    1  py     Val( 3p)     0.69747      -0.01573
    10    P    1  py     Ryd( 4p)     0.00407       0.82750
    11    P    1  pz     Cor( 2p)     1.99973      -4.72352
    12    P    1  pz     Val( 3p)     0.70700      -0.01382
    13    P    1  pz     Ryd( 4p)     0.00540       0.79296
    14    P    1  dxy    Ryd( 3d)     0.00565       1.01068
    15    P    1  dxz    Ryd( 3d)     0.00490       1.11660
    16    P    1  dyz    Ryd( 3d)     0.00558       1.19081
    17    P    1  dx2y2  Ryd( 3d)     0.00342       1.03700
    18    P    1  dz2    Ryd( 3d)     0.00510       1.08057
 
    19    C    2  S      Cor( 1S)     1.99885     -10.10015
    20    C    2  S      Val( 2S)     0.93073      -0.16280
    21    C    2  S      Ryd( 3S)     0.00408       0.72215
    22    C    2  px     Val( 2p)     1.13177      -0.08348
    23    C    2  px     Ryd( 3p)     0.00611       0.91681
    24    C    2  py     Val( 2p)     1.09420      -0.11212
    25    C    2  py     Ryd( 3p)     0.00345       0.81323
    26    C    2  pz     Val( 2p)     1.16558      -0.12438
    27    C    2  pz     Ryd( 3p)     0.00904       0.99851
    28    C    2  dxy    Ryd( 3d)     0.00067       2.06452
    29    C    2  dxz    Ryd( 3d)     0.00114       2.24269
    30    C    2  dyz    Ryd( 3d)     0.00057       2.14785
    31    C    2  dx2y2  Ryd( 3d)     0.00061       2.26923
    32    C    2  dz2    Ryd( 3d)     0.00080       2.12344
 
    33    C    3  S      Cor( 1S)     1.99884     -10.09426
    34    C    3  S      Val( 2S)     0.91753      -0.11614
    35    C    3  S      Ryd( 3S)     0.00159       0.65024
    36    C    3  px     Val( 2p)     1.20011      -0.06220
    37    C    3  px     Ryd( 3p)     0.00791       1.08305
    38    C    3  py     Val( 2p)     1.01531      -0.08507
    39    C    3  py     Ryd( 3p)     0.00186       0.66270
    40    C    3  pz     Val( 2p)     1.05086      -0.05324
    41    C    3  pz     Ryd( 3p)     0.00327       0.72888
    42    C    3  dxy    Ryd( 3d)     0.00047       2.01280
    43    C    3  dxz    Ryd( 3d)     0.00061       2.25320
    44    C    3  dyz    Ryd( 3d)     0.00051       2.26075
    45    C    3  dx2y2  Ryd( 3d)     0.00070       2.11218
    46    C    3  dz2    Ryd( 3d)     0.00069       2.15279
 
    47    C    4  S      Cor( 1S)     1.99881     -10.10696
    48    C    4  S      Val( 2S)     0.86067      -0.10518
    49    C    4  S      Ryd( 3S)     0.00129       0.61467
    50    C    4  px     Val( 2p)     1.09582      -0.05696
    51    C    4  px     Ryd( 3p)     0.00364       0.92896
    52    C    4  py     Val( 2p)     1.03155      -0.08827
    53    C    4  py     Ryd( 3p)     0.00290       0.81645
    54    C    4  pz     Val( 2p)     1.07319      -0.07004
    55    C    4  pz     Ryd( 3p)     0.00447       0.94092
    56    C    4  dxy    Ryd( 3d)     0.00072       2.09426
    57    C    4  dxz    Ryd( 3d)     0.00066       2.31104
    58    C    4  dyz    Ryd( 3d)     0.00062       2.19936
    59    C    4  dx2y2  Ryd( 3d)     0.00068       2.24291
    60    C    4  dz2    Ryd( 3d)     0.00081       2.13721
 
    61    C    5  S      Cor( 1S)     1.99849     -10.15849
    62    C    5  S      Val( 2S)     0.78728      -0.08126
    63    C    5  S      Ryd( 3S)     0.00222       0.73386
    64    C    5  px     Val( 2p)     1.00701      -0.03603
    65    C    5  px     Ryd( 3p)     0.00555       0.91075
    66    C    5  py     Val( 2p)     0.96560      -0.08514
    67    C    5  py     Ryd( 3p)     0.00486       0.70489
    68    C    5  pz     Val( 2p)     0.88063      -0.04766
    69    C    5  pz     Ryd( 3p)     0.00577       0.91399
    70    C    5  dxy    Ryd( 3d)     0.00113       2.12200
    71    C    5  dxz    Ryd( 3d)     0.00176       2.30212
    72    C    5  dyz    Ryd( 3d)     0.00141       2.20856
    73    C    5  dx2y2  Ryd( 3d)     0.00118       2.24121
    74    C    5  dz2    Ryd( 3d)     0.00169       2.13996
 
    75    C    6  S      Cor( 1S)     1.99881     -10.10484
    76    C    6  S      Val( 2S)     0.86036      -0.10383
    77    C    6  S      Ryd( 3S)     0.00158       0.61990
    78    C    6  px     Val( 2p)     1.08623      -0.06239
    79    C    6  px     Ryd( 3p)     0.00579       1.12813
    80    C    6  py     Val( 2p)     1.02482      -0.08526
    81    C    6  py     Ryd( 3p)     0.00227       0.74196
    82    C    6  pz     Val( 2p)     1.08261      -0.06368
    83    C    6  pz     Ryd( 3p)     0.00340       0.82973
    84    C    6  dxy    Ryd( 3d)     0.00084       2.07239
    85    C    6  dxz    Ryd( 3d)     0.00090       2.31773
    86    C    6  dyz    Ryd( 3d)     0.00051       2.23768
    87    C    6  dx2y2  Ryd( 3d)     0.00060       2.21107
    88    C    6  dz2    Ryd( 3d)     0.00064       2.16920
 
    89    C    7  S      Cor( 1S)     1.99887     -10.09127
    90    C    7  S      Val( 2S)     0.91750      -0.11521
    91    C    7  S      Ryd( 3S)     0.00271       0.72154
    92    C    7  px     Val( 2p)     1.11455      -0.04872
    93    C    7  px     Ryd( 3p)     0.00490       0.82981
    94    C    7  py     Val( 2p)     1.04493      -0.09024
    95    C    7  py     Ryd( 3p)     0.00332       0.80579
    96    C    7  pz     Val( 2p)     1.11301      -0.06279
    97    C    7  pz     Ryd( 3p)     0.00578       0.88636
    98    C    7  dxy    Ryd( 3d)     0.00061       2.06678
    99    C    7  dxz    Ryd( 3d)     0.00072       2.30630
   100    C    7  dyz    Ryd( 3d)     0.00060       2.14264
   101    C    7  dx2y2  Ryd( 3d)     0.00050       2.24341
   102    C    7  dz2    Ryd( 3d)     0.00061       2.09784
 
   103    C    8  S      Cor( 1S)     1.99890     -10.09809
   104    C    8  S      Val( 2S)     0.93233      -0.15674
   105    C    8  S      Ryd( 3S)     0.00357       0.66631
   106    C    8  px     Val( 2p)     1.06774      -0.10708
   107    C    8  px     Ryd( 3p)     0.00241       0.74792
   108    C    8  py     Val( 2p)     1.20406      -0.12817
   109    C    8  py     Ryd( 3p)     0.00971       1.07584
   110    C    8  pz     Val( 2p)     1.11529      -0.06997
   111    C    8  pz     Ryd( 3p)     0.00435       0.91340
   112    C    8  dxy    Ryd( 3d)     0.00103       2.03648
   113    C    8  dxz    Ryd( 3d)     0.00070       2.10484
   114    C    8  dyz    Ryd( 3d)     0.00080       2.38346
   115    C    8  dx2y2  Ryd( 3d)     0.00071       2.05345
   116    C    8  dz2    Ryd( 3d)     0.00079       2.27169
 
   117    C    9  S      Cor( 1S)     1.99887     -10.08393
   118    C    9  S      Val( 2S)     0.90915      -0.10417
   119    C    9  S      Ryd( 3S)     0.00193       0.65227
   120    C    9  px     Val( 2p)     1.05500      -0.08747
   121    C    9  px     Ryd( 3p)     0.00282       0.73746
   122    C    9  py     Val( 2p)     1.11361      -0.04163
   123    C    9  py     Ryd( 3p)     0.00460       0.89638
   124    C    9  pz     Val( 2p)     1.12712      -0.04732
   125    C    9  pz     Ryd( 3p)     0.00501       0.91611
   126    C    9  dxy    Ryd( 3d)     0.00062       2.03543
   127    C    9  dxz    Ryd( 3d)     0.00053       2.03956
   128    C    9  dyz    Ryd( 3d)     0.00075       2.32923
   129    C    9  dx2y2  Ryd( 3d)     0.00048       2.16699
   130    C    9  dz2    Ryd( 3d)     0.00057       2.27417
 
   131    C   10  S      Cor( 1S)     1.99882     -10.09662
   132    C   10  S      Val( 2S)     0.85965      -0.09402
   133    C   10  S      Ryd( 3S)     0.00154       0.58982
   134    C   10  px     Val( 2p)     1.02115      -0.08045
   135    C   10  px     Ryd( 3p)     0.00213       0.72568
   136    C   10  py     Val( 2p)     1.09107      -0.04453
   137    C   10  py     Ryd( 3p)     0.00376       0.89883
   138    C   10  pz     Val( 2p)     1.07458      -0.05427
   139    C   10  pz     Ryd( 3p)     0.00542       1.07570
   140    C   10  dxy    Ryd( 3d)     0.00070       2.09578
   141    C   10  dxz    Ryd( 3d)     0.00072       2.08013
   142    C   10  dyz    Ryd( 3d)     0.00087       2.37926
   143    C   10  dx2y2  Ryd( 3d)     0.00057       2.21455
   144    C   10  dz2    Ryd( 3d)     0.00068       2.25806
 
   145    C   11  S      Cor( 1S)     1.99849     -10.14424
[...]
                                                    536(r),561(r),382(r),388(r)
                                                    532(r),353(r),534(r),527(r)
                                                    552(r),201(g),523(r),543(r)
                                                    559(r),737(r),398(r),558(r)
                                                    567(r),751(r),549(r),395(r)
                                                    550(r),539(r),368(r),377(r)
                                                    717(r),551(r),359(r),378(r)
                                                    354(r),531(r),373(r),386(r)
                                                    385(r),352(r),530(r),754(r)
                                                    570(r),757(r),443(r),516(r)
                                                    400(r),369(r),365(r),460(r)
                                                    715(r),434(r),548(r),390(r)
                                                    391(r),566(r),755(r)
   199. LP*(   7)Fe  47                  0.20872     0.28541  717(r),794(r),202(r),800(r)
                                                    715(r),545(r),757(r),563(r)
                                                    747(r),764(r),404(r),623(r)
                                                    801(r),804(r),761(r),527(r)
                                                    568(r),401(r),746(r),387(r)
                                                    569(r),536(r),336(r),796(r)
                                                    369(r),759(r),748(r),390(r)
                                                    373(r),624(r),363(r),541(r)
                                                    793(r),571(r),752(r),798(r)
                                                    559(r),397(r),716(r),262(r)
                                                    372(r),395(r),756(r),750(r)
                                                    523(r),802(r),799(r),368(r)
   200. LP*(   8)Fe  47                  0.20396     0.29350  748(r),192(r),759(r),717(r)
                                                    715(r),757(r),800(r),198(g)
                                                    536(r),527(r),803(r),382(r)
                                                    763(r),622(r),554(r),624(r)
                                                    218(r),746(r),568(r),747(r)
                                                    798(r),378(r),363(r),354(r)
                                                    570(r),751(r),400(r),804(r)
                                                    336(r),716(r),796(r),351(r)
                                                    539(r),550(r),359(r),551(r)
                                                    530(r),758(r),750(r),361(r)
                                                    761(r),762(r),534(r),756(r)
                                                    525(r),760(r),801(r),385(r)
                                                    368(r)
   201. LP*(   9)Fe  47                  0.12985     0.23571  518(g),746(r),192(r),202(r)
                                                    715(r),751(r),717(r),368(r)
                                                    359(r),395(r),380(r),563(r)
                                                    377(r),748(r),558(r),554(r)
                                                    567(r),386(r),382(r),752(r)
                                                    549(r),389(r),371(r),370(r)
                                                    545(r),539(r),353(r),361(r)
                                                    763(r),388(r),527(r)
   517. RY*(   1)Fe  47                  0.00443     0.61050   
   518. RY*(   2)Fe  47                  0.00063     0.88390   
   519. RY*(   3)Fe  47                  0.00022     1.41984   
   520. RY*(   4)Fe  47                  0.00014     1.42869   
   521. RY*(   5)Fe  47                  0.00004     1.31895   
   522. RY*(   6)Fe  47                  0.00003     1.33725   
       -------------------------------
              Total Lewis   23.52423  ( 90.5284%)
        Valence non-Lewis    2.45573  (  9.4504%)
        Rydberg non-Lewis    0.00550  (  0.0212%)
       -------------------------------
            Total unit  2   25.98547  (100.0000%)
           Charge unit  2    0.01453
 
 Molecular unit  3  (C5H5)
    79. BD (   1) C  48 - C  49          1.96807    -0.63860  198(r),200(r),197(r),801(v)
                                                    804(v),201(r),560(v),796(g)
                                                    542(v),798(g),541(v),797(g)
                                                    196(r),795(g),559(v),192(r)
                                                    353(r)
    80. BD (   2) C  48 - C  49          1.53038    -0.28070  202(v),197(r),200(r),198(r)
                                                    201(r),192(r),800(v),196(r)
                                                    519(r),797(g),804(v),801(v)
                                                    525(g),518(r),759(r),757(r)
                                                    520(r),378(r),199(r),521(r)
    81. BD (   1) C  48 - C  52          1.95514    -0.64779  202(g),198(r),199(r),201(r)
                                                    197(r),798(v),803(v),200(r)
                                                    551(v),793(g),196(r),802(g)
                                                    804(g),533(v),796(g),532(v)
                                                    192(r),363(r)
    82. BD (   1) C  48 - H  53          1.98105    -0.52829  200(r),802(v),797(v),198(r)
                                                    199(r),793(g),201(r),795(g)
                                                    534(v),517(r)
    83. BD (   1) C  49 - C  50          1.95474    -0.66348  198(r),196(r),199(r),200(r)
                                                    201(r),796(v),803(v),793(g)
                                                    799(g),801(g),798(g),550(v)
                                                    524(v),523(v),192(r),361(r)
                                                    197(r)
    84. BD (   1) C  49 - H  77          1.98088    -0.52803  200(r),799(v),795(v),198(r)
                                                    793(g),797(g),199(r),201(r)
                                                    543(v),517(r)
    85. BD (   1) C  50 - C  51          1.96617    -0.63368  198(r),197(r),201(r),804(v)
                                                    798(v),199(r),533(v),560(v)
                                                    803(g),801(g),797(g),802(g)
                                                    263(r),200(r),192(r),196(r)
    86. BD (   2) C  50 - C  51          1.52983    -0.27557  202(v),197(r),198(r),201(r)
                                                    794(v),199(r),200(r),192(r)
                                                    196(r),519(r),797(g),804(v)
                                                    798(v),518(r),759(r),729(r)
                                                    517(r),263(r),353(r),717(r)
                                                    363(r),218(r),522(r),356(r)
                                                    262(r)
    87. BD (   1) C  50 - H  54          1.98018    -0.52662  199(r),793(v),802(v),198(r)
                                                    799(g),201(r),797(g),534(v)
                                                    552(v),263(r),517(r),729(r)
                                                    261(r),397(r)
    88. BD (   1) C  51 - C  52          1.95560    -0.64724  202(g),198(r),201(r),196(r)
                                                    801(v),796(v),524(v),799(g)
                                                    542(v),795(g),804(g),197(r)
                                                    803(g),200(r),199(r),192(r)
                                                    400(r)
    89. BD (   1) C  51 - H  55          1.98013    -0.52211  198(r),795(v),797(v),200(r)
                                                    201(r),799(g),802(g),543(v)
                                                    517(r),218(r),197(r),263(r)
    90. BD (   1) C  52 - H  56          1.98064    -0.52795  799(v),199(r),793(v),198(r)
                                                    202(g),201(r),802(g),795(g)
                                                    517(r),752(r),401(r),200(r)
   173. CR (   1) C  48                  1.99865   -10.10006  198(r),200(r),201(r),560(v)
                                                    533(v),199(r),202(v),804(v)
                                                    798(v),568(v),802(v),197(r)
                                                    518(r)
   174. CR (   1) C  49                  1.99865   -10.09954  198(r),200(r),201(r),524(v)
                                                    542(v),801(v),796(v),199(r)
                                                    624(v),799(v),196(r),518(r)
   175. CR (   1) C  50                  1.99867   -10.09700  198(r),199(r),201(r),533(v)
                                                    551(v),803(v),798(v),569(v)
                                                    793(v),197(r),196(r),518(r)
                                                    200(r)
   176. CR (   1) C  51                  1.99868   -10.09483  198(r),201(r),560(v),200(r)
                                                    542(v),202(v),570(v),804(v)
                                                    801(v),795(v),197(r),518(r)
   177. CR (   1) C  52                  1.99868   -10.09824  198(r),202(g),199(r),201(r)
                                                    524(v),803(v),796(v),551(v)
                                                    571(v),799(v),793(v),550(v)
                                                    802(g),196(r),518(r)
   202. LP (   1) C  52                  0.98922    -0.11936  196(r),192(r),800(v),794(v)
                                                    197(r),198(r),199(r),802(g)
                                                    201(r),795(g),559(g),803(v)
                                                    796(v),561(g),553(v),520(r)
                                                    526(v),551(v),759(r),522(r)
                                                    521(r),200(r),401(r),518(r)
                                                    353(r),517(r),389(r)
   523. RY*(   1) C  48                  0.00397     0.89384   
   524. RY*(   2) C  48                  0.00363     0.67787   
   525. RY*(   3) C  48                  0.00263     1.15785   
   526. RY*(   4) C  48                  0.00133     1.87606   
   527. RY*(   5) C  48                  0.00093     0.73332   
   528. RY*(   6) C  48                  0.00021     1.96338   
   529. RY*(   7) C  48                  0.00010     2.34640   
   530. RY*(   8) C  48                  0.00006     2.13337   
   531. RY*(   9) C  48                  0.00005     2.10458   
   532. RY*(   1) C  49                  0.00396     0.87426   
   533. RY*(   2) C  49                  0.00364     0.64955   
   534. RY*(   3) C  49                  0.00273     1.22317   
   535. RY*(   4) C  49                  0.00132     1.88690   
   536. RY*(   5) C  49                  0.00093     0.71158   
   537. RY*(   6) C  49                  0.00020     1.97103   
   538. RY*(   7) C  49                  0.00010     2.34739   
   539. RY*(   8) C  49                  0.00005     2.16394   
   540. RY*(   9) C  49                  0.00005     2.06772   
   541. RY*(   1) C  50                  0.00400     0.83256   
   542. RY*(   2) C  50                  0.00375     0.74489   
   543. RY*(   3) C  50                  0.00270     1.32380   
   544. RY*(   4) C  50                  0.00131     1.89692   
   545. RY*(   5) C  50                  0.00094     0.70594   
   546. RY*(   6) C  50                  0.00021     2.00240   
   547. RY*(   7) C  50                  0.00011     2.37990   
   548. RY*(   8) C  50                  0.00007     2.08198   
   549. RY*(   9) C  50                  0.00005     2.15701   
   550. RY*(   1) C  51                  0.00425     0.90868   
   551. RY*(   2) C  51                  0.00395     0.76276   
   552. RY*(   3) C  51                  0.00261     1.27889   
   553. RY*(   4) C  51                  0.00132     1.89162   
   554. RY*(   5) C  51                  0.00101     0.72416   
   555. RY*(   6) C  51                  0.00020     2.01508   
   556. RY*(   7) C  51                  0.00011     2.10565   
   557. RY*(   8) C  51                  0.00011     2.36553   
   558. RY*(   9) C  51                  0.00005     2.18648   
   559. RY*(   1) C  52                  0.00406     0.90858   
   560. RY*(   2) C  52                  0.00363     0.65950   
   561. RY*(   3) C  52                  0.00257     1.22809   
   562. RY*(   4) C  52                  0.00110     1.90485   
   563. RY*(   5) C  52                  0.00093     0.71016   
   564. RY*(   6) C  52                  0.00020     1.97802   
   565. RY*(   7) C  52                  0.00010     2.35470   
   566. RY*(   8) C  52                  0.00008     2.09646   
   567. RY*(   9) C  52                  0.00005     2.16130   
   568. RY*(   1) H  53                  0.00117     0.35659   
   569. RY*(   1) H  54                  0.00176     0.45403   
   570. RY*(   1) H  55                  0.00361     0.57329   
   571. RY*(   1) H  56                  0.00143     0.39204   
   624. RY*(   1) H  77                  0.00115     0.35927   
   793. BD*(   1) C  48 - C  49          0.03097     0.52150   
   794. BD*(   2) C  48 - C  49          0.47194     0.05035  800(v),759(r),202(v),793(g)
                                                    199(r),196(r),532(g),523(g)
                                                    197(r),525(g),757(r),534(g)
                                                    522(r),729(r),520(r),361(r)
                                                    200(r),192(r),363(r)
   795. BD*(   1) C  48 - C  52          0.02872     0.52973   
   796. BD*(   1) C  48 - H  53          0.01605     0.49770   
   797. BD*(   1) C  49 - C  50          0.01368     0.54784   
   798. BD*(   1) C  49 - H  77          0.01605     0.49786   
   799. BD*(   1) C  50 - C  51          0.03083     0.52392   
   800. BD*(   2) C  50 - C  51          0.47513     0.05091  794(v),759(r),202(v),799(g)
                                                    196(r),199(r),757(r),200(r)
                                                    550(g),541(g),719(r),542(g)
                                                    552(g),521(r),729(r),520(r)
                                                    197(r),724(r),198(r),201(r)
   801. BD*(   1) C  50 - H  54          0.01664     0.50735   
   802. BD*(   1) C  51 - C  52          0.02949     0.53701   
   803. BD*(   1) C  51 - H  55          0.01644     0.52512   
   804. BD*(   1) C  52 - H  56          0.01679     0.49989   
       -------------------------------
              Total Lewis   33.74538  ( 96.4633%)
        Valence non-Lewis    1.16274  (  3.3238%)
        Rydberg non-Lewis    0.07447  (  0.2129%)
       -------------------------------
            Total unit  3   34.98259  (100.0000%)
           Charge unit  3    0.01741
 Leave Link  607 at Fri Sep 29 19:35:20 2023, MaxMem=  4026531840 cpu:              35.1 elap:               4.5
 (Enter /sw/arch/RHEL8/EB_production/2022/software/Gaussian/g16.c02/l9999.exe)
 Unable to Open any file for archive entry.
 1\1\GINC-TCN1239\SP\RPBE1PBE\def2SVPP\C46H52Fe1O2P2\ADARSH\29-Sep-2023
 \0\\#p pop=nbo pbe1pbe/def2svpp empiricaldispersion=gd3bj integral=gri
 d=ultrafinegrid scf=(xqc,maxconventionalcycles=90) nosymm\\Cisa\\0,1\P
 ,0,0.1889,1.08631,-0.72727\C,0,1.08989,0.53595,-2.20318\C,0,0.38185,-0
 .16719,-3.18098\C,0,1.03027,-0.72617,-4.28621\C,0,2.4187,-0.54336,-4.3
 9694\C,0,3.15483,0.16559,-3.42734\C,0,2.47269,0.69853,-2.33506\C,0,0.8
 3545,2.71985,-0.26299\C,0,0.54774,3.21387,1.01733\C,0,0.82891,4.53442,
 1.36199\C,0,1.40764,5.37159,0.38944\C,0,1.67951,4.9126,-0.90888\C,0,1.
 38267,3.58035,-1.21769\P,0,-2.56083,-0.66546,-0.05797\C,0,-1.14752,-1.
 87393,0.13598\C,0,-1.57594,-3.23438,0.66555\C,0,0.62508,-0.00622,0.645
 04\C,0,-0.09481,-1.21288,0.97618\C,0,0.36958,-1.64784,2.25286\C,0,1.37
 982,-0.75099,2.69862\C,0,1.5492,0.2551,1.71068\H,0,-0.70372,-0.28759,-
 3.07141\H,0,3.03493,1.23516,-1.56494\H,0,0.08134,2.56286,1.76365\H,0,1
 .57244,3.22339,-2.23439\H,0,-0.75517,-1.98649,-0.89089\H,0,-0.70414,-3
 .90857,0.71368\H,0,-2.33422,-3.69713,0.01397\H,0,-1.99589,-3.15514,1.6
 8083\H,0,2.25278,1.08586,1.74772\C,0,-3.7855,0.15764,4.28451\C,0,-4.19
 787,-1.05336,3.71034\C,0,-3.85995,-1.30709,2.37926\C,0,-3.13587,-0.363
 81,1.63727\C,0,-2.75347,0.84183,2.23161\C,0,-3.06413,1.11496,3.56829\H
 ,0,-4.17928,-2.24522,1.91586\H,0,-2.20605,1.58076,1.63351\C,0,-5.80761
 ,-2.69106,-2.58712\C,0,-6.20177,-1.97232,-1.4553\C,0,-5.20876,-1.41139
 ,-0.64144\C,0,-3.85669,-1.56764,-0.95628\C,0,-3.49137,-2.28125,-2.1059
 8\C,0,-4.45957,-2.85724,-2.93067\H,0,-5.50277,-0.84292,0.24618\H,0,-2.
 43537,-2.38767,-2.37737\Fe,0,1.90328,-1.582,0.90298\C,0,2.95502,-3.317
 29,1.15431\C,0,3.84402,-2.20764,1.07319\C,0,3.63947,-1.57082,-0.18364\
 C,0,2.62483,-2.28885,-0.88316\C,0,2.20548,-3.36832,-0.05691\H,0,2.8491
 ,-3.99274,2.00352\H,0,4.16207,-0.68485,-0.54078\H,0,2.22869,-2.04296,-
 1.86853\H,0,1.43442,-4.0989,-0.3025\H,0,-4.045,0.36174,5.32928\H,0,-6.
 57666,-3.13607,-3.22781\C,0,-4.99006,-2.04514,4.51349\H,0,-5.96839,-1.
 62587,4.80881\H,0,-5.17779,-2.96955,3.94416\H,0,-4.46164,-2.31911,5.44
 321\C,0,-2.60467,2.39319,4.21002\H,0,-3.21218,2.64677,5.09365\H,0,-1.5
 5424,2.30619,4.54511\H,0,-2.65463,3.23921,3.50373\C,0,-7.65558,-1.7746
 4,-1.13431\H,0,-7.81418,-1.62139,-0.05439\H,0,-8.05464,-0.88501,-1.655
 83\H,0,-8.26095,-2.63893,-1.4528\C,0,-4.06658,-3.65277,-4.1424\H,0,-4.
 74603,-3.46039,-4.98932\H,0,-3.03861,-3.417,-4.46495\H,0,-4.10772,-4.7
 371,-3.93175\H,0,1.95437,-0.84473,3.62008\H,0,0.04349,-2.54403,2.77817
 \H,0,4.53704,-1.88487,1.8504\O,0,1.63519,6.67317,0.71104\O,0,3.09809,-
 1.11458,-5.42595\C,0,0.27471,-1.51888,-5.31246\H,0,-0.03168,-0.89088,-
 6.16908\H,0,0.89658,-2.33672,-5.71054\H,0,-0.64403,-1.94947,-4.87994\C
 ,0,4.644,0.28012,-3.56069\H,0,5.10877,-0.71962,-3.60832\H,0,4.93418,0.
 80862,-4.4852\H,0,5.07611,0.8279,-2.70817\C,0,3.1211,-0.38999,-6.63628
 \H,0,3.56249,0.6146,-6.49614\H,0,3.74518,-0.96315,-7.33776\H,0,2.10832
 ,-0.27661,-7.0653\C,0,2.94632,6.98883,1.12507\H,0,3.68348,6.80859,0.32
 082\H,0,2.95029,8.05865,1.38148\H,0,3.24062,6.40185,2.01536\C,0,2.2503
 1,5.83838,-1.94227\H,0,1.8859,6.86684,-1.78953\H,0,3.35441,5.86963,-1.
 89386\H,0,1.97756,5.51151,-2.95871\C,0,0.50565,5.0786,2.72185\H,0,-0.0
 5148,6.02693,2.64372\H,0,-0.09407,4.35921,3.30233\H,0,1.42138,5.29621,
 3.30015\\Version=ES64L-G16RevC.02\HF=-3876.6223061\RMSD=4.163e-09\Dipo
 le=0.7443741,-0.1195736,0.0674605\Quadrupole=-3.1423665,-10.2630042,13
 .4053707,16.82355,-4.8032712,2.2258205\PG=C01 [X(C46H52Fe1O2P2)]\\@
 The archive entry for this job was punched.


 WE MIGHT AS WELL ATTEMPT TO INTRODUCE A NEW PLANET 
 INTO THE SOLAR SYSTEM, OR TO ANNIHILATE ONE ALREADYIN EXISTENCE, 
 AS TO CREATE OR DESTROY A PARTICLE OF HYDROGEN.
 ALL THE CHANGES WE CAN PRODUCE CONSIST IN SEPARATING PARTICLES
 THAT ARE IN A STATE OF ... COMBINATION, AND JOINING 
 THOSE THAT WERE PREVIOUSLY AT A DISTANCE.

                                    -- JOHN DALTON, 1810
 Job cpu time:       0 days  1 hours 38 minutes 26.4 seconds.
 Elapsed time:       0 days  0 hours  3 minutes 26.1 seconds.
 File lengths (MBytes):  RWF=    592 Int=      0 D2E=      0 Chk=     48 Scr=     32
 Normal termination of Gaussian 16 at Fri Sep 29 19:35:20 2023.
