 Entering Gaussian System, Link 0=g16
 Input=free_ligand_L1_SP.inp
 Output=free_ligand_L1_SP.log
 Initial command:
 /sw/arch/RHEL8/EB_production/2022/software/Gaussian/g16.c02/l1.exe "/scratch-local/adarsh.3962528/Gau-2269490.inp" -scrdir="/scratch-local/adarsh.3962528/"
 Entering Link 1 = /sw/arch/RHEL8/EB_production/2022/software/Gaussian/g16.c02/l1.exe PID=   2269595.
  
 Copyright (c) 1988-2021, Gaussian, Inc.  All Rights Reserved.
  
 This is part of the Gaussian(R) 16 program.  It is based on
 the Gaussian(R) 09 system (copyright 2009, Gaussian, Inc.),
 the Gaussian(R) 03 system (copyright 2003, Gaussian, Inc.),
 the Gaussian(R) 98 system (copyright 1998, Gaussian, Inc.),
 the Gaussian(R) 94 system (copyright 1995, Gaussian, Inc.),
 the Gaussian 92(TM) system (copyright 1992, Gaussian, Inc.),
 the Gaussian 90(TM) system (copyright 1990, Gaussian, Inc.),
 the Gaussian 88(TM) system (copyright 1988, Gaussian, Inc.),
 the Gaussian 86(TM) system (copyright 1986, Carnegie Mellon
 University), and the Gaussian 82(TM) system (copyright 1983,
 Carnegie Mellon University). Gaussian is a federally registered
 trademark of Gaussian, Inc.
  
 This software contains proprietary and confidential information,
 including trade secrets, belonging to Gaussian, Inc.
  
 This software is provided under written license and may be
 used, copied, transmitted, or stored only in accord with that
 written license.
  
 The following legend is applicable only to US Government
 contracts under FAR:
  
                    RESTRICTED RIGHTS LEGEND
  
 Use, reproduction and disclosure by the US Government is
 subject to restrictions as set forth in subparagraphs (a)
 and (c) of the Commercial Computer Software - Restricted
 Rights clause in FAR 52.227-19.
  
 Gaussian, Inc.
 340 Quinnipiac St., Bldg. 40, Wallingford CT 06492
  
  
 ---------------------------------------------------------------
 Warning -- This program may not be used in any manner that
 competes with the business of Gaussian, Inc. or will provide
 assistance to any competitor of Gaussian, Inc.  The licensee
 of this program is prohibited from giving any competitor of
 Gaussian, Inc. access to this program.  By using this program,
 the user acknowledges that Gaussian, Inc. is engaged in the
 business of creating and licensing software in the field of
 computational chemistry and represents and warrants to the
 licensee that it is not a competitor of Gaussian, Inc. and that
 it will not use this program in any manner prohibited above.
 ---------------------------------------------------------------
  

 Cite this work as:
 Gaussian 16, Revision C.02,
 M. J. Frisch, G. W. Trucks, H. B. Schlegel, G. E. Scuseria, 
 M. A. Robb, J. R. Cheeseman, G. Scalmani, V. Barone, 
 G. A. Petersson, H. Nakatsuji, X. Li, M. Caricato, A. V. Marenich, 
 J. Bloino, B. G. Janesko, R. Gomperts, B. Mennucci, H. P. Hratchian, 
 J. V. Ortiz, A. F. Izmaylov, J. L. Sonnenberg, D. Williams-Young, 
 F. Ding, F. Lipparini, F. Egidi, J. Goings, B. Peng, A. Petrone, 
 T. Henderson, D. Ranasinghe, V. G. Zakrzewski, J. Gao, N. Rega, 
 G. Zheng, W. Liang, M. Hada, M. Ehara, K. Toyota, R. Fukuda, 
 J. Hasegawa, M. Ishida, T. Nakajima, Y. Honda, O. Kitao, H. Nakai, 
 T. Vreven, K. Throssell, J. A. Montgomery, Jr., J. E. Peralta, 
 F. Ogliaro, M. J. Bearpark, J. J. Heyd, E. N. Brothers, K. N. Kudin, 
 V. N. Staroverov, T. A. Keith, R. Kobayashi, J. Normand, 
 K. Raghavachari, A. P. Rendell, J. C. Burant, S. S. Iyengar, 
 J. Tomasi, M. Cossi, J. M. Millam, M. Klene, C. Adamo, R. Cammi, 
 J. W. Ochterski, R. L. Martin, K. Morokuma, O. Farkas, 
 J. B. Foresman, and D. J. Fox, Gaussian, Inc., Wallingford CT, 2019.
 
 ******************************************
 Gaussian 16:  ES64L-G16RevC.02  7-Dec-2021
                29-Sep-2023 
 ******************************************
 %nprocshared=32
 Will use up to   32 processors via shared memory.
 %mem=30GB
 %chk=free_ligand_L1.chk
 ----------------------------------------------------------------------
 #p pop=nbo pbe1pbe/def2svpp empiricaldispersion=gd3bj integral=grid=ul
 trafinegrid scf=(xqc,maxconventionalcycles=90) nosymm
 ----------------------------------------------------------------------
 1/38=1,172=1/1;
 2/12=2,15=1,17=6,18=5,40=1/2;
 3/5=43,7=202,11=2,25=1,30=1,74=-13,75=-5,124=41/1,2,3;
 4//1;
 5/5=2,8=3,13=1,38=5,85=90/2,8;
 6/7=2,8=2,9=2,10=2,28=1,40=1/1,7;
 99/5=1,9=1/99;
 Leave Link    1 at Fri Sep 29 19:31:33 2023, MaxMem=  4026531840 cpu:               0.2 elap:               0.9
 (Enter /sw/arch/RHEL8/EB_production/2022/software/Gaussian/g16.c02/l101.exe)
 ----
 Cisa
 ----
 Symbolic Z-matrix:
 Charge =  0 Multiplicity = 1
 P                     0.19631   0.89394  -0.78002 
 C                     1.10303   0.37817  -2.27172 
 C                     0.4081   -0.30721  -3.27478 
 C                     1.08424  -0.78013  -4.39973 
 C                     2.45379  -0.55455  -4.53368 
 C                     3.14849   0.14239  -3.54215 
 C                     2.47855   0.60234  -2.41177 
 C                     0.82389   2.55133  -0.35144 
 C                     0.61919   3.0473    0.94534 
 C                     0.93407   4.36852   1.25161 
 C                     1.44552   5.21549   0.26667 
 C                     1.63554   4.73463  -1.0274 
 C                     1.32289   3.41109  -1.33868 
 P                    -2.54525  -0.87266   0.0586 
 C                    -1.09347  -2.04865   0.18456 
 C                    -1.38577  -3.46212   0.67893 
 C                     0.70602  -0.17571   0.5834 
 C                     0.00654  -1.38031   0.96086 
 C                     0.54567  -1.80771   2.21202 
 C                     1.57001  -0.89886   2.60152 
 C                     1.68143   0.10095   1.59902 
 H                    -0.67184  -0.46272  -3.16541 
 H                     3.02773   1.13804  -1.63212 
 H                     0.2047    2.39837   1.72151 
 H                     1.47041   3.05199  -2.36072 
 H                    -0.76696  -2.11891  -0.86909 
 H                    -0.44197  -4.03085   0.72027 
 H                    -2.06444  -3.99559  -0.0022 
 H                    -1.83165  -3.47721   1.68346 
 H                     2.38185   0.93527   1.59486 
 Fe                    2.00619  -1.7396    0.79004 
 C                     3.06117  -3.48044   0.9931 
 C                     3.94787  -2.36901   0.91504 
 C                     3.72225  -1.71213  -0.32774 
 C                     2.69698  -2.41998  -1.02143 
 C                     2.292    -3.51282  -0.20621 
 H                     2.97135  -4.17051   1.83242 
 H                     4.23926  -0.82048  -0.67877 
 H                     2.28748  -2.16362  -1.99824 
 H                     1.52276  -4.24404  -0.45524 
 H                     2.98477  -0.92009  -5.41726 
 H                     1.69324   6.25274   0.5091 
 H                     2.1924   -0.98246   3.49232 
 H                     0.26041  -2.7067    2.75675 
 H                     4.65341  -2.05791   1.68575 
 H                     0.77686   4.74052   2.26806 
 H                     2.03142   5.39301  -1.80584 
 H                     4.22215   0.32143  -3.6496 
 H                     0.53799  -1.32023  -5.17816 
 C                    -3.08986  -0.34164   1.75326 
 C                    -3.0509   -1.38812   2.87143 
 C                    -2.34237   0.92651   2.19144 
 H                    -4.1493   -0.05997   1.57957 
 C                    -3.63587  -0.82178   4.16461 
 H                    -1.99979  -1.67385   3.05095 
 H                    -3.59234  -2.30329   2.58499 
 C                    -2.91538   1.49069   3.48763 
 H                    -1.27567   0.6759    2.33906 
 H                    -2.3835    1.68366   1.38399 
 C                    -2.91162   0.44751   4.59999 
 H                    -3.58522  -1.58703   4.95853 
 H                    -4.70997  -0.60103   4.01192 
 H                    -2.33998   2.38313   3.79096 
 H                    -3.95243   1.83364   3.30661 
 H                    -3.37269   0.85856   5.51454 
 H                    -1.86492   0.19758   4.85999 
 C                    -3.96407  -1.78679  -0.70664 
 C                    -3.52937  -2.4122   -2.03833 
 C                    -4.7702   -2.769     0.14895 
 H                    -4.65539  -0.95468  -0.94714 
 C                    -4.72848  -2.95684  -2.80991 
 H                    -2.82257  -3.24003  -1.84632 
 H                    -2.97868  -1.66826  -2.64448 
 C                    -5.96019  -3.31224  -0.64287 
 H                    -4.13543  -3.60892   0.47829 
 H                    -5.13626  -2.26855   1.0608 
 C                    -5.5281   -3.94179  -1.96301 
 H                    -4.3869   -3.43513  -3.74422 
 H                    -5.38299  -2.11482  -3.10942 
 H                    -6.51021  -4.04436  -0.02684 
 H                    -6.66608  -2.48409  -0.84715 
 H                    -6.40937  -4.29964  -2.52236 
 H                    -4.90572  -4.83418  -1.75764 
 
 ITRead=  0  0  0  0  0  0  0  0  0  0  0  0  0  0  0  0  0  0  0  0
 ITRead=  0  0  0  0  0  0  0  0  0  0  0  0  0  0  0  0  0  0  0  0
 ITRead=  0  0  0  0  0  0  0  0  0  0  0  0  0  0  0  0  0  0  0  0
 ITRead=  0  0  0  0  0  0  0  0  0  0  0  0  0  0  0  0  0  0  0  0
 ITRead=  0  0  0
 MicOpt= -1 -1 -1 -1 -1 -1 -1 -1 -1 -1 -1 -1 -1 -1 -1 -1 -1 -1 -1 -1
 MicOpt= -1 -1 -1 -1 -1 -1 -1 -1 -1 -1 -1 -1 -1 -1 -1 -1 -1 -1 -1 -1
 MicOpt= -1 -1 -1 -1 -1 -1 -1 -1 -1 -1 -1 -1 -1 -1 -1 -1 -1 -1 -1 -1
 MicOpt= -1 -1 -1 -1 -1 -1 -1 -1 -1 -1 -1 -1 -1 -1 -1 -1 -1 -1 -1 -1
 MicOpt= -1 -1 -1
 NAtoms=     83 NQM=       83 NQMF=       0 NMMI=      0 NMMIF=      0
                NMic=       0 NMicF=      0.
                    Isotopes and Nuclear Properties:
 (Nuclear quadrupole moments (NQMom) in fm**2, nuclear magnetic moments (NMagM)
  in nuclear magnetons)

  Atom         1           2           3           4           5           6           7           8           9          10
 IAtWgt=          31          12          12          12          12          12          12          12          12          12
 AtmWgt=  30.9737634  12.0000000  12.0000000  12.0000000  12.0000000  12.0000000  12.0000000  12.0000000  12.0000000  12.0000000
 NucSpn=           1           0           0           0           0           0           0           0           0           0
 AtZEff=  -0.0000000  -0.0000000  -0.0000000  -0.0000000  -0.0000000  -0.0000000  -0.0000000  -0.0000000  -0.0000000  -0.0000000
 NQMom=    0.0000000   0.0000000   0.0000000   0.0000000   0.0000000   0.0000000   0.0000000   0.0000000   0.0000000   0.0000000
 NMagM=    1.1316000   0.0000000   0.0000000   0.0000000   0.0000000   0.0000000   0.0000000   0.0000000   0.0000000   0.0000000
 AtZNuc=  15.0000000   6.0000000   6.0000000   6.0000000   6.0000000   6.0000000   6.0000000   6.0000000   6.0000000   6.0000000

  Atom        11          12          13          14          15          16          17          18          19          20
 IAtWgt=          12          12          12          31          12          12          12          12          12          12
 AtmWgt=  12.0000000  12.0000000  12.0000000  30.9737634  12.0000000  12.0000000  12.0000000  12.0000000  12.0000000  12.0000000
 NucSpn=           0           0           0           1           0           0           0           0           0           0
 AtZEff=  -0.0000000  -0.0000000  -0.0000000  -0.0000000  -0.0000000  -0.0000000  -0.0000000  -0.0000000  -0.0000000  -0.0000000
 NQMom=    0.0000000   0.0000000   0.0000000   0.0000000   0.0000000   0.0000000   0.0000000   0.0000000   0.0000000   0.0000000
 NMagM=    0.0000000   0.0000000   0.0000000   1.1316000   0.0000000   0.0000000   0.0000000   0.0000000   0.0000000   0.0000000
 AtZNuc=   6.0000000   6.0000000   6.0000000  15.0000000   6.0000000   6.0000000   6.0000000   6.0000000   6.0000000   6.0000000

  Atom        21          22          23          24          25          26          27          28          29          30
 IAtWgt=          12           1           1           1           1           1           1           1           1           1
 AtmWgt=  12.0000000   1.0078250   1.0078250   1.0078250   1.0078250   1.0078250   1.0078250   1.0078250   1.0078250   1.0078250
 NucSpn=           0           1           1           1           1           1           1           1           1           1
 AtZEff=  -0.0000000  -0.0000000  -0.0000000  -0.0000000  -0.0000000  -0.0000000  -0.0000000  -0.0000000  -0.0000000  -0.0000000
 NQMom=    0.0000000   0.0000000   0.0000000   0.0000000   0.0000000   0.0000000   0.0000000   0.0000000   0.0000000   0.0000000
 NMagM=    0.0000000   2.7928460   2.7928460   2.7928460   2.7928460   2.7928460   2.7928460   2.7928460   2.7928460   2.7928460
 AtZNuc=   6.0000000   1.0000000   1.0000000   1.0000000   1.0000000   1.0000000   1.0000000   1.0000000   1.0000000   1.0000000

  Atom        31          32          33          34          35          36          37          38          39          40
 IAtWgt=          56          12          12          12          12          12           1           1           1           1
 AtmWgt=  55.9349393  12.0000000  12.0000000  12.0000000  12.0000000  12.0000000   1.0078250   1.0078250   1.0078250   1.0078250
 NucSpn=           0           0           0           0           0           0           1           1           1           1
 AtZEff=  -0.0000000  -0.0000000  -0.0000000  -0.0000000  -0.0000000  -0.0000000  -0.0000000  -0.0000000  -0.0000000  -0.0000000
 NQMom=    0.0000000   0.0000000   0.0000000   0.0000000   0.0000000   0.0000000   0.0000000   0.0000000   0.0000000   0.0000000
 NMagM=    0.0000000   0.0000000   0.0000000   0.0000000   0.0000000   0.0000000   2.7928460   2.7928460   2.7928460   2.7928460
 AtZNuc=  26.0000000   6.0000000   6.0000000   6.0000000   6.0000000   6.0000000   1.0000000   1.0000000   1.0000000   1.0000000

  Atom        41          42          43          44          45          46          47          48          49          50
 IAtWgt=           1           1           1           1           1           1           1           1           1          12
 AtmWgt=   1.0078250   1.0078250   1.0078250   1.0078250   1.0078250   1.0078250   1.0078250   1.0078250   1.0078250  12.0000000
 NucSpn=           1           1           1           1           1           1           1           1           1           0
 AtZEff=  -0.0000000  -0.0000000  -0.0000000  -0.0000000  -0.0000000  -0.0000000  -0.0000000  -0.0000000  -0.0000000  -0.0000000
 NQMom=    0.0000000   0.0000000   0.0000000   0.0000000   0.0000000   0.0000000   0.0000000   0.0000000   0.0000000   0.0000000
 NMagM=    2.7928460   2.7928460   2.7928460   2.7928460   2.7928460   2.7928460   2.7928460   2.7928460   2.7928460   0.0000000
 AtZNuc=   1.0000000   1.0000000   1.0000000   1.0000000   1.0000000   1.0000000   1.0000000   1.0000000   1.0000000   6.0000000

  Atom        51          52          53          54          55          56          57          58          59          60
 IAtWgt=          12          12           1          12           1           1          12           1           1          12
 AtmWgt=  12.0000000  12.0000000   1.0078250  12.0000000   1.0078250   1.0078250  12.0000000   1.0078250   1.0078250  12.0000000
 NucSpn=           0           0           1           0           1           1           0           1           1           0
 AtZEff=  -0.0000000  -0.0000000  -0.0000000  -0.0000000  -0.0000000  -0.0000000  -0.0000000  -0.0000000  -0.0000000  -0.0000000
 NQMom=    0.0000000   0.0000000   0.0000000   0.0000000   0.0000000   0.0000000   0.0000000   0.0000000   0.0000000   0.0000000
 NMagM=    0.0000000   0.0000000   2.7928460   0.0000000   2.7928460   2.7928460   0.0000000   2.7928460   2.7928460   0.0000000
 AtZNuc=   6.0000000   6.0000000   1.0000000   6.0000000   1.0000000   1.0000000   6.0000000   1.0000000   1.0000000   6.0000000

  Atom        61          62          63          64          65          66          67          68          69          70
 IAtWgt=           1           1           1           1           1           1          12          12          12           1
 AtmWgt=   1.0078250   1.0078250   1.0078250   1.0078250   1.0078250   1.0078250  12.0000000  12.0000000  12.0000000   1.0078250
 NucSpn=           1           1           1           1           1           1           0           0           0           1
 AtZEff=  -0.0000000  -0.0000000  -0.0000000  -0.0000000  -0.0000000  -0.0000000  -0.0000000  -0.0000000  -0.0000000  -0.0000000
 NQMom=    0.0000000   0.0000000   0.0000000   0.0000000   0.0000000   0.0000000   0.0000000   0.0000000   0.0000000   0.0000000
 NMagM=    2.7928460   2.7928460   2.7928460   2.7928460   2.7928460   2.7928460   0.0000000   0.0000000   0.0000000   2.7928460
 AtZNuc=   1.0000000   1.0000000   1.0000000   1.0000000   1.0000000   1.0000000   6.0000000   6.0000000   6.0000000   1.0000000

  Atom        71          72          73          74          75          76          77          78          79          80
 IAtWgt=          12           1           1          12           1           1          12           1           1           1
 AtmWgt=  12.0000000   1.0078250   1.0078250  12.0000000   1.0078250   1.0078250  12.0000000   1.0078250   1.0078250   1.0078250
 NucSpn=           0           1           1           0           1           1           0           1           1           1
 AtZEff=  -0.0000000  -0.0000000  -0.0000000  -0.0000000  -0.0000000  -0.0000000  -0.0000000  -0.0000000  -0.0000000  -0.0000000
 NQMom=    0.0000000   0.0000000   0.0000000   0.0000000   0.0000000   0.0000000   0.0000000   0.0000000   0.0000000   0.0000000
 NMagM=    0.0000000   2.7928460   2.7928460   0.0000000   2.7928460   2.7928460   0.0000000   2.7928460   2.7928460   2.7928460
 AtZNuc=   6.0000000   1.0000000   1.0000000   6.0000000   1.0000000   1.0000000   6.0000000   1.0000000   1.0000000   1.0000000

  Atom        81          82          83
 IAtWgt=           1           1           1
 AtmWgt=   1.0078250   1.0078250   1.0078250
 NucSpn=           1           1           1
 AtZEff=  -0.0000000  -0.0000000  -0.0000000
 NQMom=    0.0000000   0.0000000   0.0000000
 NMagM=    2.7928460   2.7928460   2.7928460
 AtZNuc=   1.0000000   1.0000000   1.0000000
 Leave Link  101 at Fri Sep 29 19:31:33 2023, MaxMem=  4026531840 cpu:               0.2 elap:               0.1
 (Enter /sw/arch/RHEL8/EB_production/2022/software/Gaussian/g16.c02/l202.exe)
 Symmetry turned off by external request.
 Stoichiometry    C36H44FeP2
 Framework group  C1[X(C36H44FeP2)]
 Deg. of freedom   243
 Full point group                 C1      NOp   1
                          Input orientation:                          
 ---------------------------------------------------------------------
 Center     Atomic      Atomic             Coordinates (Angstroms)
 Number     Number       Type             X           Y           Z
 ---------------------------------------------------------------------
      1         15           0        0.196310    0.893940   -0.780020
      2          6           0        1.103030    0.378170   -2.271720
      3          6           0        0.408100   -0.307210   -3.274780
      4          6           0        1.084240   -0.780130   -4.399730
      5          6           0        2.453790   -0.554550   -4.533680
      6          6           0        3.148490    0.142390   -3.542150
      7          6           0        2.478550    0.602340   -2.411770
      8          6           0        0.823890    2.551330   -0.351440
      9          6           0        0.619190    3.047300    0.945340
     10          6           0        0.934070    4.368520    1.251610
     11          6           0        1.445520    5.215490    0.266670
     12          6           0        1.635540    4.734630   -1.027400
     13          6           0        1.322890    3.411090   -1.338680
     14         15           0       -2.545250   -0.872660    0.058600
     15          6           0       -1.093470   -2.048650    0.184560
     16          6           0       -1.385770   -3.462120    0.678930
     17          6           0        0.706020   -0.175710    0.583400
     18          6           0        0.006540   -1.380310    0.960860
     19          6           0        0.545670   -1.807710    2.212020
     20          6           0        1.570010   -0.898860    2.601520
     21          6           0        1.681430    0.100950    1.599020
     22          1           0       -0.671840   -0.462720   -3.165410
     23          1           0        3.027730    1.138040   -1.632120
     24          1           0        0.204700    2.398370    1.721510
     25          1           0        1.470410    3.051990   -2.360720
     26          1           0       -0.766960   -2.118910   -0.869090
     27          1           0       -0.441970   -4.030850    0.720270
     28          1           0       -2.064440   -3.995590   -0.002200
     29          1           0       -1.831650   -3.477210    1.683460
     30          1           0        2.381850    0.935270    1.594860
     31         26           0        2.006190   -1.739600    0.790040
     32          6           0        3.061170   -3.480440    0.993100
     33          6           0        3.947870   -2.369010    0.915040
     34          6           0        3.722250   -1.712130   -0.327740
     35          6           0        2.696980   -2.419980   -1.021430
     36          6           0        2.292000   -3.512820   -0.206210
     37          1           0        2.971350   -4.170510    1.832420
     38          1           0        4.239260   -0.820480   -0.678770
     39          1           0        2.287480   -2.163620   -1.998240
     40          1           0        1.522760   -4.244040   -0.455240
     41          1           0        2.984770   -0.920090   -5.417260
     42          1           0        1.693240    6.252740    0.509100
     43          1           0        2.192400   -0.982460    3.492320
     44          1           0        0.260410   -2.706700    2.756750
     45          1           0        4.653410   -2.057910    1.685750
     46          1           0        0.776860    4.740520    2.268060
     47          1           0        2.031420    5.393010   -1.805840
     48          1           0        4.222150    0.321430   -3.649600
     49          1           0        0.537990   -1.320230   -5.178160
     50          6           0       -3.089860   -0.341640    1.753260
     51          6           0       -3.050900   -1.388120    2.871430
     52          6           0       -2.342370    0.926510    2.191440
     53          1           0       -4.149300   -0.059970    1.579570
     54          6           0       -3.635870   -0.821780    4.164610
     55          1           0       -1.999790   -1.673850    3.050950
     56          1           0       -3.592340   -2.303290    2.584990
     57          6           0       -2.915380    1.490690    3.487630
     58          1           0       -1.275670    0.675900    2.339060
     59          1           0       -2.383500    1.683660    1.383990
     60          6           0       -2.911620    0.447510    4.599990
     61          1           0       -3.585220   -1.587030    4.958530
     62          1           0       -4.709970   -0.601030    4.011920
     63          1           0       -2.339980    2.383130    3.790960
     64          1           0       -3.952430    1.833640    3.306610
     65          1           0       -3.372690    0.858560    5.514540
     66          1           0       -1.864920    0.197580    4.859990
     67          6           0       -3.964070   -1.786790   -0.706640
     68          6           0       -3.529370   -2.412200   -2.038330
     69          6           0       -4.770200   -2.769000    0.148950
     70          1           0       -4.655390   -0.954680   -0.947140
     71          6           0       -4.728480   -2.956840   -2.809910
     72          1           0       -2.822570   -3.240030   -1.846320
     73          1           0       -2.978680   -1.668260   -2.644480
     74          6           0       -5.960190   -3.312240   -0.642870
     75          1           0       -4.135430   -3.608920    0.478290
     76          1           0       -5.136260   -2.268550    1.060800
     77          6           0       -5.528100   -3.941790   -1.963010
     78          1           0       -4.386900   -3.435130   -3.744220
     79          1           0       -5.382990   -2.114820   -3.109420
     80          1           0       -6.510210   -4.044360   -0.026840
     81          1           0       -6.666080   -2.484090   -0.847150
     82          1           0       -6.409370   -4.299640   -2.522360
     83          1           0       -4.905720   -4.834180   -1.757640
 ---------------------------------------------------------------------
 Rotational constants (GHZ):           0.1006865           0.0721706           0.0649563
 Leave Link  202 at Fri Sep 29 19:31:33 2023, MaxMem=  4026531840 cpu:               0.1 elap:               0.0
 (Enter /sw/arch/RHEL8/EB_production/2022/software/Gaussian/g16.c02/l301.exe)
 Standard basis: def2SVPP (5D, 7F)
 Ernie: Thresh=  0.10000D-02 Tol=  0.10000D-05 Strict=F.
   652 basis functions,  1221 primitive gaussians,   692 cartesian basis functions
   158 alpha electrons      158 beta electrons
       nuclear repulsion energy      5871.7226285764 Hartrees.
 IExCor= 1009 DFT=T Ex+Corr=PBE1PBE ExCW=0 ScaHFX=  0.250000
 ScaDFX=  0.750000  0.750000  1.000000  1.000000 ScalE2=  1.000000  1.000000
 IRadAn=      5 IRanWt=     -1 IRanGd=            0 ICorTp=0 IEmpDi=141
 NAtoms=   83 NActive=   83 NUniq=   83 SFac= 1.00D+00 NAtFMM=   60 NAOKFM=T Big=T
 Integral buffers will be    131072 words long.
 Raffenetti 2 integral format.
 Two-electron integral symmetry is turned off.
 R6Disp:  Grimme-D3(BJ) Dispersion energy=       -0.1262510033 Hartrees.
 Nuclear repulsion after empirical dispersion term =     5871.5963775731 Hartrees.
 Leave Link  301 at Fri Sep 29 19:31:33 2023, MaxMem=  4026531840 cpu:               0.1 elap:               0.1
 (Enter /sw/arch/RHEL8/EB_production/2022/software/Gaussian/g16.c02/l302.exe)
 NPDir=0 NMtPBC=     1 NCelOv=     1 NCel=       1 NClECP=     1 NCelD=      1
         NCelK=      1 NCelE2=     1 NClLst=     1 CellRange=     0.0.
 One-electron integrals computed using PRISM.
   1 Symmetry operations used in ECPInt.
 ECPInt:  NShTT=   54615 NPrTT=  226814 LenC2=   48132 LenP2D=  125652.
 LDataN:  DoStor=T MaxTD1= 4 Len=   56
 NBasis=   652 RedAO= T EigKep=  2.74D-04  NBF=   652
 NBsUse=   652 1.00D-06 EigRej= -1.00D+00 NBFU=   652
 Precomputing XC quadrature grid using
 IXCGrd= 4 IRadAn=           5 IRanWt=          -1 IRanGd=           0 AccXCQ= 0.00D+00.
 Generated NRdTot=       0 NPtTot=           0 NUsed=           0 NTot=          32
 NSgBfM=   676   676   676   676   676 MxSgAt=    83 MxSgA2=    83.
 Leave Link  302 at Fri Sep 29 19:31:34 2023, MaxMem=  4026531840 cpu:              19.6 elap:               1.1
 (Enter /sw/arch/RHEL8/EB_production/2022/software/Gaussian/g16.c02/l303.exe)
 DipDrv:  MaxL=1.
 Leave Link  303 at Fri Sep 29 19:31:35 2023, MaxMem=  4026531840 cpu:               0.5 elap:               0.1
 (Enter /sw/arch/RHEL8/EB_production/2022/software/Gaussian/g16.c02/l401.exe)
 ExpMin= 3.37D-02 ExpMax= 6.09D+04 ExpMxC= 9.15D+03 IAcc=3 IRadAn=         5 AccDes= 0.00D+00
 Harris functional with IExCor= 1009 and IRadAn=       5 diagonalized for initial guess.
 HarFok:  IExCor= 1009 AccDes= 0.00D+00 IRadAn=         5 IDoV= 1 UseB2=F ITyADJ=14
 ICtDFT=  3500011 ScaDFX=  1.000000  1.000000  1.000000  1.000000
 FoFCou: FMM=F IPFlag=           0 FMFlag=      100000 FMFlg1=        2001
         NFxFlg=           0 DoJE=T BraDBF=F KetDBF=T FulRan=T
         wScrn=  0.000000 ICntrl=       500 IOpCl=  0 I1Cent=   200000004 NGrid=           0
         NMat0=    1 NMatS0=      1 NMatT0=    0 NMatD0=    1 NMtDS0=    0 NMtDT0=    0
 Symmetry not used in FoFCou.
 Harris En= -3341.66578032732    
 JPrj=0 DoOrth=F DoCkMO=F.
 Leave Link  401 at Fri Sep 29 19:31:37 2023, MaxMem=  4026531840 cpu:              65.6 elap:               2.3
 (Enter /sw/arch/RHEL8/EB_production/2022/software/Gaussian/g16.c02/l502.exe)
 Two-electron integral symmetry not used.
 Closed shell SCF:
 Using DIIS extrapolation, IDIIS=  1040.
 NGot=  4026531840 LenX=  4025542864 LenY=  4025063308
 Requested convergence on RMS density matrix=1.00D-08 within  90 cycles.
 Requested convergence on MAX density matrix=1.00D-06.
 Requested convergence on             energy=1.00D-06.
 No special actions if energy rises.
 Fock matrices will be formed incrementally for  20 cycles.

 Cycle   1  Pass 1  IDiag  1:
 FoFJK:  IHMeth= 1 ICntrl=       0 DoSepK=F KAlg= 0 I1Cent=           0 FoldK=F
 IRaf= 990000000 NMat=       1 IRICut=       1 DoRegI=T DoRafI=F ISym2E= 0 IDoP0=0 IntGTp=1.
 FoFCou: FMM=T IPFlag=           0 FMFlag=      100000 FMFlg1=        2001
         NFxFlg=           0 DoJE=F BraDBF=F KetDBF=F FulRan=T
         wScrn=  0.000000 ICntrl=         0 IOpCl=  0 I1Cent=           0 NGrid=           0
         NMat0=    1 NMatS0=      1 NMatT0=    0 NMatD0=    1 NMtDS0=    0 NMtDT0=    0
 Symmetry not used in FoFCou.
 FMM levels:  10  Number of levels for PrismC:   9
 E= -3340.32354210743    
 DIIS: error= 2.22D-02 at cycle   1 NSaved=   1.
 NSaved= 1 IEnMin= 1 EnMin= -3340.32354210743     IErMin= 1 ErrMin= 2.22D-02
 ErrMax= 2.22D-02  0.00D+00 EMaxC= 1.00D-01 BMatC= 8.93D-01 BMatP= 8.93D-01
 IDIUse=3 WtCom= 7.78D-01 WtEn= 2.22D-01
 Coeff-Com:  0.100D+01
 Coeff-En:   0.100D+01
 Coeff:      0.100D+01
 Gap=     0.205 Goal=   None    Shift=    0.000
 GapD=    0.205 DampG=1.000 DampE=0.250 DampFc=0.2500 IDamp=-1.
 Damping current iteration by 2.50D-01
 RMSDP=4.30D-03 MaxDP=2.10D-01              OVMax= 1.90D-01

 Cycle   2  Pass 1  IDiag  1:
 RMSU=  1.02D-03    CP:  9.80D-01
 E= -3340.66284162898     Delta-E=       -0.339299521551 Rises=F Damp=T
 DIIS: error= 1.08D-02 at cycle   2 NSaved=   2.
 NSaved= 2 IEnMin= 2 EnMin= -3340.66284162898     IErMin= 2 ErrMin= 1.08D-02
 ErrMax= 1.08D-02  0.00D+00 EMaxC= 1.00D-01 BMatC= 2.21D-01 BMatP= 8.93D-01
 IDIUse=3 WtCom= 8.92D-01 WtEn= 1.08D-01
 Coeff-Com: -0.570D+00 0.157D+01
 Coeff-En:   0.000D+00 0.100D+01
 Coeff:     -0.509D+00 0.151D+01
 Gap=     0.259 Goal=   None    Shift=    0.000
 RMSDP=4.03D-03 MaxDP=3.59D-01 DE=-3.39D-01 OVMax= 4.30D-01

 Cycle   3  Pass 1  IDiag  1:
 RMSU=  3.97D-03    CP:  9.76D-01  1.69D+00
 E= -3339.72754630115     Delta-E=        0.935295327834 Rises=F Damp=F
 DIIS: error= 9.44D-02 at cycle   3 NSaved=   3.
 NSaved= 3 IEnMin= 2 EnMin= -3340.66284162898     IErMin= 2 ErrMin= 1.08D-02
 ErrMax= 9.44D-02  0.00D+00 EMaxC= 1.00D-01 BMatC= 2.48D+00 BMatP= 2.21D-01
 IDIUse=2 WtCom= 0.00D+00 WtEn= 1.00D+00
 Coeff-En:   0.000D+00 0.773D+00 0.227D+00
 Coeff:      0.000D+00 0.773D+00 0.227D+00
 Gap=     0.366 Goal=   None    Shift=    0.000
 RMSDP=5.53D-03 MaxDP=4.07D-01 DE= 9.35D-01 OVMax= 2.58D-01

 Cycle   4  Pass 1  IDiag  1:
 RMSU=  1.68D-03    CP:  9.21D-01  2.73D+00 -2.81D-01
 E= -3339.43390829308     Delta-E=        0.293638008068 Rises=F Damp=F
 DIIS: error= 9.37D-02 at cycle   4 NSaved=   4.
 NSaved= 4 IEnMin= 2 EnMin= -3340.66284162898     IErMin= 2 ErrMin= 1.08D-02
 ErrMax= 9.37D-02  0.00D+00 EMaxC= 1.00D-01 BMatC= 3.09D+00 BMatP= 2.21D-01
 IDIUse=2 WtCom= 0.00D+00 WtEn= 1.00D+00
 EnCoef did     1 forward-backward iterations
 Coeff-En:   0.326D-01 0.000D+00 0.507D+00 0.460D+00
 Coeff:      0.326D-01 0.000D+00 0.507D+00 0.460D+00
 Gap=     0.104 Goal=   None    Shift=    0.000
 RMSDP=2.31D-03 MaxDP=2.21D-01 DE= 2.94D-01 OVMax= 2.76D-01

 Cycle   5  Pass 1  IDiag  1:
 RMSU=  8.50D-04    CP:  9.56D-01  1.60D+00  9.46D-02  5.03D-01
 E= -3341.21782633511     Delta-E=       -1.783918042025 Rises=F Damp=F
 DIIS: error= 8.61D-03 at cycle   5 NSaved=   5.
 NSaved= 5 IEnMin= 5 EnMin= -3341.21782633511     IErMin= 5 ErrMin= 8.61D-03
 ErrMax= 8.61D-03  0.00D+00 EMaxC= 1.00D-01 BMatC= 8.54D-02 BMatP= 2.21D-01
 IDIUse=3 WtCom= 9.14D-01 WtEn= 8.61D-02
 Coeff-Com: -0.582D+00 0.791D+00 0.944D-01-0.102D+00 0.798D+00
 Coeff-En:   0.000D+00 0.000D+00 0.739D-01 0.000D+00 0.926D+00
 Coeff:     -0.532D+00 0.723D+00 0.926D-01-0.932D-01 0.809D+00
 Gap=     0.162 Goal=   None    Shift=    0.000
 RMSDP=7.20D-04 MaxDP=6.96D-02 DE=-1.78D+00 OVMax= 3.77D-02

 Cycle   6  Pass 1  IDiag  1:
 RMSU=  3.00D-04    CP:  9.53D-01  2.02D+00  1.82D-01  2.99D-01  9.78D-01
 E= -3341.29445324936     Delta-E=       -0.076626914259 Rises=F Damp=F
 DIIS: error= 3.48D-03 at cycle   6 NSaved=   6.
 NSaved= 6 IEnMin= 6 EnMin= -3341.29445324936     IErMin= 6 ErrMin= 3.48D-03
 ErrMax= 3.48D-03  0.00D+00 EMaxC= 1.00D-01 BMatC= 5.35D-03 BMatP= 8.54D-02
 IDIUse=3 WtCom= 9.65D-01 WtEn= 3.48D-02
 Coeff-Com: -0.296D+00 0.398D+00 0.501D-01-0.665D-01 0.429D+00 0.486D+00
 Coeff-En:   0.000D+00 0.000D+00 0.000D+00 0.000D+00 0.000D+00 0.100D+01
 Coeff:     -0.285D+00 0.384D+00 0.484D-01-0.642D-01 0.414D+00 0.503D+00
 Gap=     0.147 Goal=   None    Shift=    0.000
 RMSDP=2.14D-04 MaxDP=1.64D-02 DE=-7.66D-02 OVMax= 1.67D-02

 Cycle   7  Pass 1  IDiag  1:
 RMSU=  1.31D-04    CP:  9.53D-01  1.99D+00  1.71D-01  2.95D-01  1.02D+00
                    CP:  4.84D-01
 E= -3341.29725965818     Delta-E=       -0.002806408815 Rises=F Damp=F
 DIIS: error= 2.29D-03 at cycle   7 NSaved=   7.
 NSaved= 7 IEnMin= 7 EnMin= -3341.29725965818     IErMin= 7 ErrMin= 2.29D-03
 ErrMax= 2.29D-03  0.00D+00 EMaxC= 1.00D-01 BMatC= 2.29D-03 BMatP= 5.35D-03
 IDIUse=3 WtCom= 9.77D-01 WtEn= 2.29D-02
 Coeff-Com: -0.691D-02 0.616D-02 0.112D-01-0.188D-01 0.197D-01 0.327D+00
 Coeff-Com:  0.662D+00
 Coeff-En:   0.000D+00 0.000D+00 0.000D+00 0.000D+00 0.000D+00 0.171D+00
 Coeff-En:   0.829D+00
 Coeff:     -0.675D-02 0.602D-02 0.109D-01-0.184D-01 0.193D-01 0.323D+00
 Coeff:      0.666D+00
 Gap=     0.147 Goal=   None    Shift=    0.000
 RMSDP=8.97D-05 MaxDP=6.60D-03 DE=-2.81D-03 OVMax= 8.55D-03

 Cycle   8  Pass 1  IDiag  1:
 RMSU=  4.91D-05    CP:  9.54D-01  1.98D+00  1.78D-01  2.88D-01  1.03D+00
                    CP:  6.44D-01  6.28D-01
 E= -3341.29883984528     Delta-E=       -0.001580187101 Rises=F Damp=F
 DIIS: error= 5.94D-04 at cycle   8 NSaved=   8.
 NSaved= 8 IEnMin= 8 EnMin= -3341.29883984528     IErMin= 8 ErrMin= 5.94D-04
 ErrMax= 5.94D-04  0.00D+00 EMaxC= 1.00D-01 BMatC= 1.98D-04 BMatP= 2.29D-03
 IDIUse=3 WtCom= 9.94D-01 WtEn= 5.94D-03
 Coeff-Com:  0.396D-01-0.562D-01 0.131D-02-0.258D-02-0.490D-01 0.110D+00
 Coeff-Com:  0.366D+00 0.591D+00
 Coeff-En:   0.000D+00 0.000D+00 0.000D+00 0.000D+00 0.000D+00 0.000D+00
 Coeff-En:   0.000D+00 0.100D+01
 Coeff:      0.394D-01-0.559D-01 0.130D-02-0.257D-02-0.487D-01 0.109D+00
 Coeff:      0.364D+00 0.593D+00
 Gap=     0.147 Goal=   None    Shift=    0.000
 RMSDP=2.97D-05 MaxDP=1.98D-03 DE=-1.58D-03 OVMax= 2.47D-03

 Cycle   9  Pass 1  IDiag  1:
 RMSU=  1.74D-05    CP:  9.54D-01  1.98D+00  1.81D-01  2.86D-01  1.03D+00
                    CP:  6.49D-01  7.22D-01  6.69D-01
 E= -3341.29899516022     Delta-E=       -0.000155314941 Rises=F Damp=F
 DIIS: error= 1.06D-04 at cycle   9 NSaved=   9.
 NSaved= 9 IEnMin= 9 EnMin= -3341.29899516022     IErMin= 9 ErrMin= 1.06D-04
 ErrMax= 1.06D-04  0.00D+00 EMaxC= 1.00D-01 BMatC= 1.03D-05 BMatP= 1.98D-04
 IDIUse=3 WtCom= 9.99D-01 WtEn= 1.06D-03
 Coeff-Com:  0.191D-01-0.263D-01-0.159D-03 0.162D-03-0.253D-01 0.187D-01
 Coeff-Com:  0.106D+00 0.293D+00 0.614D+00
 Coeff-En:   0.000D+00 0.000D+00 0.000D+00 0.000D+00 0.000D+00 0.000D+00
 Coeff-En:   0.000D+00 0.000D+00 0.100D+01
 Coeff:      0.191D-01-0.263D-01-0.159D-03 0.162D-03-0.252D-01 0.187D-01
 Coeff:      0.106D+00 0.293D+00 0.615D+00
 Gap=     0.147 Goal=   None    Shift=    0.000
 RMSDP=8.36D-06 MaxDP=5.23D-04 DE=-1.55D-04 OVMax= 1.25D-03

 Cycle  10  Pass 1  IDiag  1:
 RMSU=  6.76D-06    CP:  9.54D-01  1.98D+00  1.81D-01  2.85D-01  1.03D+00
                    CP:  6.54D-01  7.14D-01  7.22D-01  8.22D-01
 E= -3341.29900357102     Delta-E=       -0.000008410803 Rises=F Damp=F
 DIIS: error= 4.84D-05 at cycle  10 NSaved=  10.
 NSaved=10 IEnMin=10 EnMin= -3341.29900357102     IErMin=10 ErrMin= 4.84D-05
 ErrMax= 4.84D-05  0.00D+00 EMaxC= 1.00D-01 BMatC= 2.07D-06 BMatP= 1.03D-05
 IDIUse=1 WtCom= 1.00D+00 WtEn= 0.00D+00
 Coeff-Com:  0.531D-02-0.695D-02-0.326D-03 0.323D-03-0.753D-02-0.209D-02
 Coeff-Com:  0.162D-01 0.944D-01 0.367D+00 0.534D+00
 Coeff:      0.531D-02-0.695D-02-0.326D-03 0.323D-03-0.753D-02-0.209D-02
 Coeff:      0.162D-01 0.944D-01 0.367D+00 0.534D+00
 Gap=     0.147 Goal=   None    Shift=    0.000
 RMSDP=3.26D-06 MaxDP=1.59D-04 DE=-8.41D-06 OVMax= 5.17D-04

 Cycle  11  Pass 1  IDiag  1:
 RMSU=  1.93D-06    CP:  9.54D-01  1.98D+00  1.81D-01  2.85D-01  1.03D+00
                    CP:  6.53D-01  7.18D-01  7.28D-01  8.79D-01  6.84D-01
 E= -3341.29900525287     Delta-E=       -0.000001681841 Rises=F Damp=F
 DIIS: error= 4.51D-05 at cycle  11 NSaved=  11.
 NSaved=11 IEnMin=11 EnMin= -3341.29900525287     IErMin=11 ErrMin= 4.51D-05
 ErrMax= 4.51D-05  0.00D+00 EMaxC= 1.00D-01 BMatC= 6.54D-07 BMatP= 2.07D-06
 IDIUse=1 WtCom= 1.00D+00 WtEn= 0.00D+00
 Coeff-Com:  0.965D-03-0.115D-02-0.232D-03 0.160D-03-0.143D-02-0.175D-02
 Coeff-Com:  0.782D-03 0.272D-01 0.155D+00 0.299D+00 0.522D+00
 Coeff:      0.965D-03-0.115D-02-0.232D-03 0.160D-03-0.143D-02-0.175D-02
 Coeff:      0.782D-03 0.272D-01 0.155D+00 0.299D+00 0.522D+00
 Gap=     0.147 Goal=   None    Shift=    0.000
 RMSDP=1.37D-06 MaxDP=7.67D-05 DE=-1.68D-06 OVMax= 1.06D-04

 Cycle  12  Pass 1  IDiag  1:
 RMSU=  8.67D-07    CP:  9.54D-01  1.98D+00  1.81D-01  2.85D-01  1.03D+00
                    CP:  6.52D-01  7.18D-01  7.32D-01  8.86D-01  7.21D-01
                    CP:  7.51D-01
 E= -3341.29900564175     Delta-E=       -0.000000388884 Rises=F Damp=F
 DIIS: error= 2.23D-05 at cycle  12 NSaved=  12.
 NSaved=12 IEnMin=12 EnMin= -3341.29900564175     IErMin=12 ErrMin= 2.23D-05
 ErrMax= 2.23D-05  0.00D+00 EMaxC= 1.00D-01 BMatC= 1.35D-07 BMatP= 6.54D-07
 IDIUse=1 WtCom= 1.00D+00 WtEn= 0.00D+00
 Coeff-Com: -0.231D-03 0.333D-03-0.121D-03 0.538D-04 0.384D-03-0.497D-04
 Coeff-Com: -0.866D-03 0.250D-02 0.317D-01 0.760D-01 0.216D+00 0.674D+00
 Coeff:     -0.231D-03 0.333D-03-0.121D-03 0.538D-04 0.384D-03-0.497D-04
 Coeff:     -0.866D-03 0.250D-02 0.317D-01 0.760D-01 0.216D+00 0.674D+00
 Gap=     0.147 Goal=   None    Shift=    0.000
 RMSDP=9.00D-07 MaxDP=6.08D-05 DE=-3.89D-07 OVMax= 9.16D-05

 Cycle  13  Pass 1  IDiag  1:
 RMSU=  4.23D-07    CP:  9.54D-01  1.98D+00  1.81D-01  2.85D-01  1.03D+00
                    CP:  6.53D-01  7.17D-01  7.33D-01  8.96D-01  7.40D-01
                    CP:  8.96D-01  1.04D+00
 E= -3341.29900573107     Delta-E=       -0.000000089321 Rises=F Damp=F
 DIIS: error= 7.48D-06 at cycle  13 NSaved=  13.
 NSaved=13 IEnMin=13 EnMin= -3341.29900573107     IErMin=13 ErrMin= 7.48D-06
 ErrMax= 7.48D-06  0.00D+00 EMaxC= 1.00D-01 BMatC= 1.72D-08 BMatP= 1.35D-07
 IDIUse=1 WtCom= 1.00D+00 WtEn= 0.00D+00
 Coeff-Com: -0.363D-03 0.453D-03-0.248D-04-0.484D-05 0.565D-03 0.566D-03
 Coeff-Com: -0.382D-03-0.537D-02-0.233D-01-0.426D-01-0.522D-01 0.356D+00
 Coeff-Com:  0.766D+00
 Coeff:     -0.363D-03 0.453D-03-0.248D-04-0.484D-05 0.565D-03 0.566D-03
 Coeff:     -0.382D-03-0.537D-02-0.233D-01-0.426D-01-0.522D-01 0.356D+00
 Coeff:      0.766D+00
 Gap=     0.147 Goal=   None    Shift=    0.000
 RMSDP=6.62D-07 MaxDP=4.97D-05 DE=-8.93D-08 OVMax= 8.17D-05

 Cycle  14  Pass 1  IDiag  1:
 RMSU=  2.36D-07    CP:  9.54D-01  1.98D+00  1.81D-01  2.85D-01  1.03D+00
                    CP:  6.52D-01  7.17D-01  7.33D-01  9.04D-01  7.63D-01
                    CP:  9.65D-01  1.39D+00  1.10D+00
 E= -3341.29900575211     Delta-E=       -0.000000021038 Rises=F Damp=F
 DIIS: error= 1.82D-06 at cycle  14 NSaved=  14.
 NSaved=14 IEnMin=14 EnMin= -3341.29900575211     IErMin=14 ErrMin= 1.82D-06
 ErrMax= 1.82D-06  0.00D+00 EMaxC= 1.00D-01 BMatC= 1.13D-09 BMatP= 1.72D-08
 IDIUse=1 WtCom= 1.00D+00 WtEn= 0.00D+00
 Coeff-Com: -0.102D-03 0.119D-03 0.177D-04-0.147D-04 0.125D-03 0.200D-03
 Coeff-Com: -0.517D-04-0.333D-02-0.195D-01-0.417D-01-0.899D-01-0.157D-01
 Coeff-Com:  0.405D+00 0.765D+00
 Coeff:     -0.102D-03 0.119D-03 0.177D-04-0.147D-04 0.125D-03 0.200D-03
 Coeff:     -0.517D-04-0.333D-02-0.195D-01-0.417D-01-0.899D-01-0.157D-01
 Coeff:      0.405D+00 0.765D+00
 Gap=     0.147 Goal=   None    Shift=    0.000
 RMSDP=3.03D-07 MaxDP=2.88D-05 DE=-2.10D-08 OVMax= 5.77D-05

 Cycle  15  Pass 1  IDiag  1:
 RMSU=  1.03D-07    CP:  9.54D-01  1.98D+00  1.81D-01  2.85D-01  1.03D+00
                    CP:  6.52D-01  7.17D-01  7.34D-01  9.07D-01  7.69D-01
                    CP:  1.02D+00  1.58D+00  1.46D+00  1.13D+00
 E= -3341.29900575657     Delta-E=       -0.000000004457 Rises=F Damp=F
 DIIS: error= 1.92D-06 at cycle  15 NSaved=  15.
 NSaved=15 IEnMin=15 EnMin= -3341.29900575657     IErMin=14 ErrMin= 1.82D-06
 ErrMax= 1.92D-06  0.00D+00 EMaxC= 1.00D-01 BMatC= 1.06D-09 BMatP= 1.13D-09
 IDIUse=1 WtCom= 1.00D+00 WtEn= 0.00D+00
 Coeff-Com:  0.191D-04-0.265D-04 0.149D-04-0.607D-05-0.466D-04-0.569D-04
 Coeff-Com: -0.929D-04-0.691D-03-0.426D-02-0.933D-02-0.244D-01-0.574D-01
 Coeff-Com:  0.253D-01 0.292D+00 0.779D+00
 Coeff:      0.191D-04-0.265D-04 0.149D-04-0.607D-05-0.466D-04-0.569D-04
 Coeff:     -0.929D-04-0.691D-03-0.426D-02-0.933D-02-0.244D-01-0.574D-01
 Coeff:      0.253D-01 0.292D+00 0.779D+00
 Gap=     0.147 Goal=   None    Shift=    0.000
 RMSDP=1.42D-07 MaxDP=1.42D-05 DE=-4.46D-09 OVMax= 2.83D-05

 Cycle  16  Pass 1  IDiag  1:
 RMSU=  5.84D-08    CP:  9.54D-01  1.98D+00  1.81D-01  2.85D-01  1.03D+00
                    CP:  6.52D-01  7.17D-01  7.34D-01  9.07D-01  7.72D-01
                    CP:  1.05D+00  1.66D+00  1.59D+00  1.38D+00  1.30D+00
 E= -3341.29900575825     Delta-E=       -0.000000001688 Rises=F Damp=F
 DIIS: error= 8.45D-07 at cycle  16 NSaved=  16.
 NSaved=16 IEnMin=16 EnMin= -3341.29900575825     IErMin=16 ErrMin= 8.45D-07
 ErrMax= 8.45D-07  0.00D+00 EMaxC= 1.00D-01 BMatC= 2.64D-10 BMatP= 1.06D-09
 IDIUse=1 WtCom= 1.00D+00 WtEn= 0.00D+00
 Coeff-Com:  0.412D-04-0.497D-04 0.459D-05 0.953D-06-0.550D-04-0.101D-03
 Coeff-Com: -0.742D-04 0.753D-03 0.497D-02 0.116D-01 0.265D-01-0.131D-01
 Coeff-Com: -0.164D+00-0.197D+00 0.390D+00 0.940D+00
 Coeff:      0.412D-04-0.497D-04 0.459D-05 0.953D-06-0.550D-04-0.101D-03
 Coeff:     -0.742D-04 0.753D-03 0.497D-02 0.116D-01 0.265D-01-0.131D-01
 Coeff:     -0.164D+00-0.197D+00 0.390D+00 0.940D+00
 Gap=     0.147 Goal=   None    Shift=    0.000
 RMSDP=1.27D-07 MaxDP=1.31D-05 DE=-1.69D-09 OVMax= 2.51D-05

 Cycle  17  Pass 1  IDiag  1:
 RMSU=  2.80D-08    CP:  9.54D-01  1.98D+00  1.81D-01  2.85D-01  1.03D+00
                    CP:  6.52D-01  7.17D-01  7.34D-01  9.08D-01  7.74D-01
                    CP:  1.07D+00  1.74D+00  1.71D+00  1.57D+00  1.77D+00
                    CP:  1.31D+00
 E= -3341.29900575890     Delta-E=       -0.000000000651 Rises=F Damp=F
 DIIS: error= 1.62D-07 at cycle  17 NSaved=  17.
 NSaved=17 IEnMin=17 EnMin= -3341.29900575890     IErMin=17 ErrMin= 1.62D-07
 ErrMax= 1.62D-07  0.00D+00 EMaxC= 1.00D-01 BMatC= 1.80D-11 BMatP= 2.64D-10
 IDIUse=1 WtCom= 1.00D+00 WtEn= 0.00D+00
 Coeff-Com:  0.100D-04-0.111D-04 0.586D-06 0.745D-06-0.594D-05-0.184D-04
 Coeff-Com: -0.621D-06 0.408D-03 0.263D-02 0.648D-02 0.167D-01 0.624D-02
 Coeff-Com: -0.850D-01-0.155D+00 0.216D-01 0.470D+00 0.715D+00
 Coeff:      0.100D-04-0.111D-04 0.586D-06 0.745D-06-0.594D-05-0.184D-04
 Coeff:     -0.621D-06 0.408D-03 0.263D-02 0.648D-02 0.167D-01 0.624D-02
 Coeff:     -0.850D-01-0.155D+00 0.216D-01 0.470D+00 0.715D+00
 Gap=     0.147 Goal=   None    Shift=    0.000
 RMSDP=4.40D-08 MaxDP=4.15D-06 DE=-6.51D-10 OVMax= 8.63D-06

 Cycle  18  Pass 1  IDiag  1:
 RMSU=  1.25D-08    CP:  9.54D-01  1.98D+00  1.81D-01  2.85D-01  1.03D+00
                    CP:  6.52D-01  7.17D-01  7.34D-01  9.08D-01  7.75D-01
                    CP:  1.08D+00  1.76D+00  1.75D+00  1.65D+00  1.92D+00
                    CP:  1.47D+00  8.34D-01
 E= -3341.29900575892     Delta-E=       -0.000000000011 Rises=F Damp=F
 DIIS: error= 7.26D-08 at cycle  18 NSaved=  18.
 NSaved=18 IEnMin=18 EnMin= -3341.29900575892     IErMin=18 ErrMin= 7.26D-08
 ErrMax= 7.26D-08  0.00D+00 EMaxC= 1.00D-01 BMatC= 5.03D-12 BMatP= 1.80D-11
 IDIUse=1 WtCom= 1.00D+00 WtEn= 0.00D+00
 Coeff-Com: -0.198D-06 0.766D-06-0.237D-07 0.150D-06 0.498D-05 0.692D-05
 Coeff-Com:  0.147D-04 0.113D-03 0.669D-03 0.179D-02 0.530D-02 0.428D-02
 Coeff-Com: -0.256D-01-0.568D-01-0.332D-01 0.138D+00 0.391D+00 0.574D+00
 Coeff:     -0.198D-06 0.766D-06-0.237D-07 0.150D-06 0.498D-05 0.692D-05
 Coeff:      0.147D-04 0.113D-03 0.669D-03 0.179D-02 0.530D-02 0.428D-02
 Coeff:     -0.256D-01-0.568D-01-0.332D-01 0.138D+00 0.391D+00 0.574D+00
 Gap=     0.147 Goal=   None    Shift=    0.000
 RMSDP=8.89D-09 MaxDP=7.85D-07 DE=-1.09D-11 OVMax= 1.55D-06

 SCF Done:  E(RPBE1PBE) =  -3341.29900576     A.U. after   18 cycles
            NFock= 18  Conv=0.89D-08     -V/T= 2.0056
 KE= 3.322737864193D+03 PE=-1.960245129905D+04 EE= 7.066818051521D+03
 Leave Link  502 at Fri Sep 29 19:33:42 2023, MaxMem=  4026531840 cpu:            3699.1 elap:             125.3
 (Enter /sw/arch/RHEL8/EB_production/2022/software/Gaussian/g16.c02/l508.exe)
 QCSCF skips out because SCF is already converged.
 Leave Link  508 at Fri Sep 29 19:33:42 2023, MaxMem=  4026531840 cpu:               0.5 elap:               0.0
 (Enter /sw/arch/RHEL8/EB_production/2022/software/Gaussian/g16.c02/l601.exe)
 Copying SCF densities to generalized density rwf, IOpCl= 0 IROHF=0.

 **********************************************************************

            Population analysis using the SCF Density.

 **********************************************************************

 Alpha  occ. eigenvalues -- -256.34791 -77.18625 -77.16443 -30.12259 -25.97107
 Alpha  occ. eigenvalues --  -25.95218 -25.95202 -10.25206 -10.24525 -10.24461
 Alpha  occ. eigenvalues --  -10.24413 -10.24381 -10.24345 -10.24262 -10.24223
 Alpha  occ. eigenvalues --  -10.24169 -10.24149 -10.24123 -10.24080 -10.24025
 Alpha  occ. eigenvalues --  -10.23899 -10.23840 -10.23757 -10.23580 -10.23433
 Alpha  occ. eigenvalues --  -10.23283 -10.23124 -10.23099 -10.23083 -10.23037
 Alpha  occ. eigenvalues --  -10.22975 -10.22818 -10.22780 -10.22348 -10.22253
 Alpha  occ. eigenvalues --  -10.22241 -10.22156 -10.21947 -10.21866 -10.21789
 Alpha  occ. eigenvalues --  -10.21701 -10.21625 -10.21486  -6.59672  -6.57548
 Alpha  occ. eigenvalues --   -4.73728  -4.73715  -4.73182  -4.71621  -4.71577
 Alpha  occ. eigenvalues --   -4.71012  -3.45442  -2.24430  -2.19676  -2.19645
 Alpha  occ. eigenvalues --   -0.91943  -0.90035  -0.88126  -0.86843  -0.85543
 Alpha  occ. eigenvalues --   -0.84684  -0.80738  -0.78521  -0.76777  -0.76552
 Alpha  occ. eigenvalues --   -0.75900  -0.75830  -0.75444  -0.75105  -0.74945
 Alpha  occ. eigenvalues --   -0.73423  -0.72648  -0.72498  -0.71609  -0.66308
 Alpha  occ. eigenvalues --   -0.65574  -0.62821  -0.62443  -0.62144  -0.61564
 Alpha  occ. eigenvalues --   -0.61344  -0.60915  -0.60746  -0.58551  -0.56868
 Alpha  occ. eigenvalues --   -0.56514  -0.55961  -0.55565  -0.55165  -0.54925
 Alpha  occ. eigenvalues --   -0.54474  -0.53660  -0.52742  -0.51530  -0.49625
 Alpha  occ. eigenvalues --   -0.49208  -0.48161  -0.47411  -0.46608  -0.46200
 Alpha  occ. eigenvalues --   -0.45888  -0.45701  -0.45445  -0.45307  -0.44607
 Alpha  occ. eigenvalues --   -0.44544  -0.44154  -0.43650  -0.43484  -0.42980
 Alpha  occ. eigenvalues --   -0.42804  -0.42252  -0.42114  -0.41962  -0.41600
 Alpha  occ. eigenvalues --   -0.41112  -0.40708  -0.40158  -0.39884  -0.39360
 Alpha  occ. eigenvalues --   -0.39221  -0.39091  -0.39030  -0.38649  -0.38153
 Alpha  occ. eigenvalues --   -0.38004  -0.37840  -0.37365  -0.37149  -0.36736
 Alpha  occ. eigenvalues --   -0.36380  -0.36178  -0.35705  -0.35424  -0.34955
 Alpha  occ. eigenvalues --   -0.34701  -0.34434  -0.34012  -0.33486  -0.32490
 Alpha  occ. eigenvalues --   -0.32070  -0.31512  -0.30847  -0.30587  -0.28798
 Alpha  occ. eigenvalues --   -0.28150  -0.27944  -0.27774  -0.27631  -0.27280
 Alpha  occ. eigenvalues --   -0.26237  -0.25738  -0.25267  -0.24774  -0.22469
 Alpha  occ. eigenvalues --   -0.21550  -0.21255  -0.17117
 Alpha virt. eigenvalues --   -0.02460  -0.01144  -0.00591  -0.00164   0.00208
 Alpha virt. eigenvalues --    0.00561   0.03471   0.04401   0.05399   0.06191
 Alpha virt. eigenvalues --    0.06343   0.06855   0.07144   0.07274   0.07428
 Alpha virt. eigenvalues --    0.07907   0.08375   0.08761   0.09041   0.09409
 Alpha virt. eigenvalues --    0.09531   0.10087   0.10601   0.10702   0.11014
 Alpha virt. eigenvalues --    0.11532   0.11634   0.12246   0.12627   0.12690
 Alpha virt. eigenvalues --    0.13137   0.13446   0.13596   0.13821   0.13974
 Alpha virt. eigenvalues --    0.14443   0.14548   0.14835   0.15030   0.15217
 Alpha virt. eigenvalues --    0.15349   0.15554   0.15630   0.15923   0.16334
 Alpha virt. eigenvalues --    0.16486   0.16509   0.17147   0.17315   0.17329
 Alpha virt. eigenvalues --    0.17826   0.17901   0.18582   0.18802   0.18958
 Alpha virt. eigenvalues --    0.19292   0.19759   0.20041   0.20382   0.21046
 Alpha virt. eigenvalues --    0.21730   0.21999   0.22527   0.23291   0.23537
 Alpha virt. eigenvalues --    0.23889   0.24395   0.24636   0.25019   0.25304
 Alpha virt. eigenvalues --    0.25926   0.26081   0.26632   0.27075   0.27185
 Alpha virt. eigenvalues --    0.27552   0.27691   0.28594   0.29039   0.29320
 Alpha virt. eigenvalues --    0.29517   0.29679   0.29980   0.30771   0.30909
 Alpha virt. eigenvalues --    0.31315   0.31495   0.32091   0.32651   0.32917
 Alpha virt. eigenvalues --    0.33227   0.33692   0.34063   0.34490   0.35238
 Alpha virt. eigenvalues --    0.37272   0.37466   0.38729   0.39235   0.39789
 Alpha virt. eigenvalues --    0.41596   0.42544   0.42665   0.43036   0.43610
 Alpha virt. eigenvalues --    0.43775   0.43846   0.44250   0.44681   0.44810
 Alpha virt. eigenvalues --    0.45107   0.45431   0.45555   0.46070   0.46310
 Alpha virt. eigenvalues --    0.46460   0.46811   0.47373   0.47542   0.48126
 Alpha virt. eigenvalues --    0.48280   0.48539   0.49354   0.49564   0.49840
 Alpha virt. eigenvalues --    0.50164   0.50447   0.50808   0.50841   0.51565
 Alpha virt. eigenvalues --    0.51668   0.52472   0.52649   0.52923   0.53414
 Alpha virt. eigenvalues --    0.53962   0.54222   0.55653   0.55905   0.56303
 Alpha virt. eigenvalues --    0.57097   0.57351   0.57735   0.57912   0.58576
 Alpha virt. eigenvalues --    0.59145   0.59650   0.60222   0.60540   0.61226
 Alpha virt. eigenvalues --    0.61524   0.62009   0.62134   0.62693   0.63055
 Alpha virt. eigenvalues --    0.63421   0.64134   0.64895   0.65273   0.65628
 Alpha virt. eigenvalues --    0.65681   0.65906   0.66394   0.66641   0.67003
 Alpha virt. eigenvalues --    0.67148   0.67604   0.67896   0.68226   0.68465
 Alpha virt. eigenvalues --    0.68750   0.68902   0.69177   0.69452   0.69642
 Alpha virt. eigenvalues --    0.69752   0.70129   0.70192   0.70332   0.70648
 Alpha virt. eigenvalues --    0.70887   0.71183   0.71273   0.71583   0.71876
 Alpha virt. eigenvalues --    0.72138   0.72272   0.72614   0.72678   0.72801
 Alpha virt. eigenvalues --    0.72842   0.73143   0.73224   0.73493   0.73761
 Alpha virt. eigenvalues --    0.73876   0.73985   0.74495   0.74595   0.75014
 Alpha virt. eigenvalues --    0.75189   0.75498   0.75603   0.75691   0.75856
 Alpha virt. eigenvalues --    0.76155   0.76404   0.76567   0.76609   0.76935
 Alpha virt. eigenvalues --    0.77148   0.77294   0.77393   0.77785   0.78011
 Alpha virt. eigenvalues --    0.78046   0.78570   0.78657   0.79007   0.79487
 Alpha virt. eigenvalues --    0.79666   0.79972   0.80493   0.80647   0.81151
 Alpha virt. eigenvalues --    0.81461   0.82008   0.82306   0.82861   0.83088
 Alpha virt. eigenvalues --    0.83875   0.84261   0.84359   0.84523   0.85372
 Alpha virt. eigenvalues --    0.85546   0.85954   0.86480   0.86978   0.87478
 Alpha virt. eigenvalues --    0.88246   0.88513   0.88943   0.89629   0.90060
 Alpha virt. eigenvalues --    0.90107   0.90255   0.91374   0.91789   0.91915
 Alpha virt. eigenvalues --    0.92914   0.93140   0.93769   0.95075   0.95420
 Alpha virt. eigenvalues --    0.96094   0.97059   0.97180   0.97334   0.97846
 Alpha virt. eigenvalues --    0.98512   0.98976   1.00049   1.00124   1.01777
 Alpha virt. eigenvalues --    1.02165   1.03042   1.03378   1.04003   1.04314
 Alpha virt. eigenvalues --    1.05649   1.06725   1.08313   1.09890   1.10024
 Alpha virt. eigenvalues --    1.12181   1.12430   1.13482   1.14607   1.15570
 Alpha virt. eigenvalues --    1.15831   1.16394   1.16623   1.17211   1.19053
 Alpha virt. eigenvalues --    1.19265   1.20362   1.21275   1.22519   1.23179
 Alpha virt. eigenvalues --    1.24431   1.24973   1.25999   1.26495   1.26961
 Alpha virt. eigenvalues --    1.27080   1.27343   1.27977   1.28516   1.28914
 Alpha virt. eigenvalues --    1.30356   1.31401   1.32403   1.32805   1.33653
 Alpha virt. eigenvalues --    1.34068   1.34573   1.35420   1.36567   1.37561
 Alpha virt. eigenvalues --    1.38059   1.39230   1.39534   1.40885   1.41316
 Alpha virt. eigenvalues --    1.41923   1.42713   1.44063   1.45107   1.46045
 Alpha virt. eigenvalues --    1.48187   1.48684   1.49586   1.49965   1.50508
 Alpha virt. eigenvalues --    1.51736   1.52542   1.53568   1.55037   1.57326
 Alpha virt. eigenvalues --    1.60821   1.60916   1.62079   1.62729   1.63161
 Alpha virt. eigenvalues --    1.63872   1.67541   1.69099   1.70391   1.71036
 Alpha virt. eigenvalues --    1.71881   1.73514   1.74479   1.75610   1.76132
 Alpha virt. eigenvalues --    1.77239   1.78306   1.78697   1.79321   1.79526
 Alpha virt. eigenvalues --    1.79759   1.80532   1.81346   1.82323   1.82640
 Alpha virt. eigenvalues --    1.83344   1.83877   1.87459   1.88261   1.88709
 Alpha virt. eigenvalues --    1.88937   1.89797   1.89974   1.90634   1.91152
 Alpha virt. eigenvalues --    1.91266   1.92142   1.92693   1.93493   1.93721
 Alpha virt. eigenvalues --    1.94703   1.95075   1.95638   1.96247   1.96508
 Alpha virt. eigenvalues --    1.97193   1.97820   1.97982   1.98535   1.98723
 Alpha virt. eigenvalues --    2.00128   2.01046   2.01639   2.02646   2.03719
 Alpha virt. eigenvalues --    2.04138   2.04333   2.06002   2.06980   2.07811
 Alpha virt. eigenvalues --    2.08682   2.08761   2.09182   2.09459   2.09599
 Alpha virt. eigenvalues --    2.09787   2.09918   2.10186   2.10609   2.11934
 Alpha virt. eigenvalues --    2.12191   2.12323   2.13986   2.15285   2.15608
 Alpha virt. eigenvalues --    2.16017   2.16486   2.17195   2.18523   2.20571
 Alpha virt. eigenvalues --    2.21585   2.22263   2.23555   2.23688   2.24606
 Alpha virt. eigenvalues --    2.25624   2.26391   2.27988   2.29084   2.30159
 Alpha virt. eigenvalues --    2.30843   2.30937   2.31435   2.31864   2.32251
 Alpha virt. eigenvalues --    2.32647   2.32823   2.33070   2.33269   2.33708
 Alpha virt. eigenvalues --    2.34201   2.35221   2.35764   2.36146   2.36455
 Alpha virt. eigenvalues --    2.36828   2.37419   2.37740   2.38094   2.38257
 Alpha virt. eigenvalues --    2.39866   2.41617   2.45882   2.45992   2.46524
 Alpha virt. eigenvalues --    2.47444   2.48124   2.49235   2.49341   2.50014
 Alpha virt. eigenvalues --    2.50633   2.51554   2.52895   2.53870   2.55332
 Alpha virt. eigenvalues --    2.56440   2.60676   2.60904   2.61661   2.62494
 Alpha virt. eigenvalues --    2.63234   2.63912   2.65135   2.65565   2.66157
 Alpha virt. eigenvalues --    2.66393   2.66730   2.67779   2.68413   2.69563
 Alpha virt. eigenvalues --    2.69704   2.70518   2.71000   2.72035   2.72962
 Alpha virt. eigenvalues --    2.73807   2.74059   2.74880   2.75762   2.76120
 Alpha virt. eigenvalues --    2.77652   2.77881   2.79632   2.80355   2.88933
 Alpha virt. eigenvalues --    2.89191   2.92058   2.93741   2.99406   3.00454
 Alpha virt. eigenvalues --    3.02217   3.04080   3.34920   3.36247
          Condensed to atoms (all electrons):
 Mulliken charges:
               1
     1  P    0.420472
     2  C   -0.138697
     3  C   -0.121396
     4  C   -0.098520
     5  C   -0.092482
     6  C   -0.089526
     7  C   -0.126154
     8  C   -0.125173
     9  C   -0.160823
    10  C   -0.085516
    11  C   -0.101409
    12  C   -0.082573
    13  C   -0.154228
    14  P    0.332098
    15  C   -0.332446
    16  C   -0.320540
    17  C   -0.159185
    18  C   -0.045525
    19  C   -0.089722
    20  C   -0.046556
    21  C   -0.099746
    22  H    0.124640
    23  H    0.121530
    24  H    0.125826
    25  H    0.113271
    26  H    0.153979
    27  H    0.139916
    28  H    0.148356
    29  H    0.135687
    30  H    0.122260
    31  Fe  -0.219746
    32  C   -0.084409
    33  C   -0.068193
    34  C   -0.088290
    35  C   -0.104843
    36  C   -0.090895
    37  H    0.113295
    38  H    0.107170
    39  H    0.141157
    40  H    0.111792
    41  H    0.101689
    42  H    0.092743
    43  H    0.108398
    44  H    0.104599
    45  H    0.115444
    46  H    0.090328
    47  H    0.092586
    48  H    0.097991
    49  H    0.098628
    50  C   -0.387315
    51  C   -0.225731
    52  C   -0.239307
    53  H    0.125378
    54  C   -0.186639
    55  H    0.138990
    56  H    0.136546
    57  C   -0.188224
    58  H    0.174351
    59  H    0.141756
    60  C   -0.214962
    61  H    0.108711
    62  H    0.098823
    63  H    0.112195
    64  H    0.100782
    65  H    0.112630
    66  H    0.104084
    67  C   -0.371258
    68  C   -0.231895
    69  C   -0.199959
    70  H    0.131199
    71  C   -0.186654
    72  H    0.122012
    73  H    0.146910
    74  C   -0.190791
    75  H    0.115055
    76  H    0.132790
    77  C   -0.217088
    78  H    0.112891
    79  H    0.105702
    80  H    0.112433
    81  H    0.101389
    82  H    0.116099
    83  H    0.101837
 Sum of Mulliken charges =  -0.00000
 Mulliken charges with hydrogens summed into heavy atoms:
               1
     1  P    0.420472
     2  C   -0.138697
     3  C    0.003244
     4  C    0.000108
     5  C    0.009207
     6  C    0.008466
     7  C   -0.004624
     8  C   -0.125173
     9  C   -0.034996
    10  C    0.004812
    11  C   -0.008667
    12  C    0.010014
    13  C   -0.040958
    14  P    0.332098
    15  C   -0.178468
    16  C    0.103419
    17  C   -0.159185
    18  C   -0.045525
    19  C    0.014877
    20  C    0.061841
    21  C    0.022514
    31  Fe  -0.219746
    32  C    0.028886
    33  C    0.047251
    34  C    0.018881
    35  C    0.036314
    36  C    0.020897
    50  C   -0.261937
    51  C    0.049805
    52  C    0.076800
    54  C    0.020895
    57  C    0.024753
    60  C    0.001752
    67  C   -0.240060
    68  C    0.037027
    69  C    0.047886
    71  C    0.031938
    74  C    0.023030
    77  C    0.000848
 Electronic spatial extent (au):  <R**2>=          20713.6187
 Charge=             -0.0000 electrons
 Dipole moment (field-independent basis, Debye):
    X=              0.4892    Y=             -1.6765    Z=              0.3296  Tot=              1.7772
 Quadrupole moment (field-independent basis, Debye-Ang):
   XX=           -252.2579   YY=           -254.2766   ZZ=           -245.5980
   XY=              8.7857   XZ=             -0.3780   YZ=              1.5976
 Traceless Quadrupole moment (field-independent basis, Debye-Ang):
   XX=             -1.5471   YY=             -3.5657   ZZ=              5.1128
   XY=              8.7857   XZ=             -0.3780   YZ=              1.5976
 Octapole moment (field-independent basis, Debye-Ang**2):
  XXX=            293.0381  YYY=            447.5448  ZZZ=            -59.1163  XYY=             98.1210
  XXY=            155.6952  XXZ=            -14.8100  XZZ=            132.7860  YZZ=            121.8476
  YYZ=              8.6716  XYZ=            -18.1231
 Hexadecapole moment (field-independent basis, Debye-Ang**3):
 XXXX=         -12166.5387 YYYY=          -8667.3641 ZZZZ=          -7276.8972 XXXY=          -1453.4112
 XXXZ=            868.5978 YYYX=          -1350.6519 YYYZ=           -298.2952 ZZZX=            835.5510
 ZZZY=           -175.0312 XXYY=          -3652.0419 XXZZ=          -3188.4233 YYZZ=          -2659.4557
 XXYZ=           -133.9915 YYXZ=            317.2630 ZZXY=           -535.2861
 N-N= 5.871596377573D+03 E-N=-1.960245134188D+04  KE= 3.322737864193D+03
 No NMR shielding tensors so no spin-rotation constants.
 Leave Link  601 at Fri Sep 29 19:33:43 2023, MaxMem=  4026531840 cpu:               3.6 elap:               0.3
 (Enter /sw/arch/RHEL8/EB_production/2022/software/Gaussian/g16.c02/l607.exe)
 ******************************Gaussian NBO Version 3.1******************************
             N A T U R A L   A T O M I C   O R B I T A L   A N D
          N A T U R A L   B O N D   O R B I T A L   A N A L Y S I S
 ******************************Gaussian NBO Version 3.1******************************
       /RESON  / : Allow strongly delocalized NBO set

 Analyzing the SCF density

 Job title: Cisa                                                            

 Storage needed:   1296714 in NPA,   1709285 in NBO (4026495569 available)


 NATURAL POPULATIONS:  Natural atomic orbital occupancies 
                                                          
   NAO  Atom  No  lang   Type(AO)    Occupancy      Energy
 ----------------------------------------------------------
     1    P    1  S      Cor( 1S)     1.99999     -76.24747
     2    P    1  S      Cor( 2S)     1.99857      -7.31082
     3    P    1  S      Val( 3S)     1.24555      -0.37202
     4    P    1  S      Ryd( 4S)     0.00484       0.73999
     5    P    1  px     Cor( 2p)     1.99985      -4.72521
     6    P    1  px     Val( 3p)     1.42453      -0.10573
     7    P    1  px     Ryd( 4p)     0.00722       0.89311
     8    P    1  py     Cor( 2p)     1.99975      -4.72772
     9    P    1  py     Val( 3p)     0.69473      -0.02081
    10    P    1  py     Ryd( 4p)     0.00413       0.81336
    11    P    1  pz     Cor( 2p)     1.99974      -4.72752
    12    P    1  pz     Val( 3p)     0.70017      -0.01869
    13    P    1  pz     Ryd( 4p)     0.00525       0.79373
    14    P    1  dxy    Ryd( 3d)     0.00566       0.99725
    15    P    1  dxz    Ryd( 3d)     0.00498       1.12154
    16    P    1  dyz    Ryd( 3d)     0.00521       1.16246
    17    P    1  dx2y2  Ryd( 3d)     0.00341       1.02746
    18    P    1  dz2    Ryd( 3d)     0.00510       1.07069
 
    19    C    2  S      Cor( 1S)     1.99885     -10.10945
    20    C    2  S      Val( 2S)     0.94122      -0.17667
    21    C    2  S      Ryd( 3S)     0.00447       0.70840
    22    C    2  px     Val( 2p)     1.13270      -0.09330
    23    C    2  px     Ryd( 3p)     0.00629       0.90567
    24    C    2  py     Val( 2p)     1.07965      -0.11851
    25    C    2  py     Ryd( 3p)     0.00316       0.79561
    26    C    2  pz     Val( 2p)     1.16837      -0.13189
    27    C    2  pz     Ryd( 3p)     0.00930       0.99669
    28    C    2  dxy    Ryd( 3d)     0.00063       2.05449
    29    C    2  dxz    Ryd( 3d)     0.00114       2.23512
    30    C    2  dyz    Ryd( 3d)     0.00059       2.11343
    31    C    2  dx2y2  Ryd( 3d)     0.00061       2.23741
    32    C    2  dz2    Ryd( 3d)     0.00080       2.12201
 
    33    C    3  S      Cor( 1S)     1.99887     -10.10531
    34    C    3  S      Val( 2S)     0.93262      -0.13508
    35    C    3  S      Ryd( 3S)     0.00148       0.62799
    36    C    3  px     Val( 2p)     1.19766      -0.06505
    37    C    3  px     Ryd( 3p)     0.00815       1.06744
    38    C    3  py     Val( 2p)     1.00272      -0.09332
    39    C    3  py     Ryd( 3p)     0.00175       0.62868
    40    C    3  pz     Val( 2p)     1.05305      -0.05911
    41    C    3  pz     Ryd( 3p)     0.00366       0.70206
    42    C    3  dxy    Ryd( 3d)     0.00048       1.97794
    43    C    3  dxz    Ryd( 3d)     0.00062       2.25558
    44    C    3  dyz    Ryd( 3d)     0.00052       2.20246
    45    C    3  dx2y2  Ryd( 3d)     0.00068       2.08605
    46    C    3  dz2    Ryd( 3d)     0.00069       2.16388
 
    47    C    4  S      Cor( 1S)     1.99893     -10.10927
    48    C    4  S      Val( 2S)     0.94202      -0.14347
    49    C    4  S      Ryd( 3S)     0.00111       0.60202
    50    C    4  px     Val( 2p)     1.10116      -0.05171
    51    C    4  px     Ryd( 3p)     0.00470       0.75372
    52    C    4  py     Val( 2p)     1.04892      -0.09827
    53    C    4  py     Ryd( 3p)     0.00226       0.69146
    54    C    4  pz     Val( 2p)     1.11743      -0.06686
    55    C    4  pz     Ryd( 3p)     0.00465       0.83810
    56    C    4  dxy    Ryd( 3d)     0.00065       2.02357
    57    C    4  dxz    Ryd( 3d)     0.00075       2.25361
    58    C    4  dyz    Ryd( 3d)     0.00059       2.06332
    59    C    4  dx2y2  Ryd( 3d)     0.00051       2.18398
    60    C    4  dz2    Ryd( 3d)     0.00059       2.08958
 
    61    C    5  S      Cor( 1S)     1.99894     -10.11175
    62    C    5  S      Val( 2S)     0.94526      -0.14726
    63    C    5  S      Ryd( 3S)     0.00122       0.59517
    64    C    5  px     Val( 2p)     1.09866      -0.05144
    65    C    5  px     Ryd( 3p)     0.00458       0.74149
    66    C    5  py     Val( 2p)     1.02309      -0.09603
    67    C    5  py     Ryd( 3p)     0.00200       0.64081
    68    C    5  pz     Val( 2p)     1.13299      -0.07097
    69    C    5  pz     Ryd( 3p)     0.00473       0.89250
    70    C    5  dxy    Ryd( 3d)     0.00062       2.05434
    71    C    5  dxz    Ryd( 3d)     0.00079       2.22316
    72    C    5  dyz    Ryd( 3d)     0.00052       2.06609
    73    C    5  dx2y2  Ryd( 3d)     0.00056       2.19790
    74    C    5  dz2    Ryd( 3d)     0.00061       2.05097
 
    75    C    6  S      Cor( 1S)     1.99892     -10.10757
    76    C    6  S      Val( 2S)     0.94093      -0.14241
    77    C    6  S      Ryd( 3S)     0.00124       0.60810
    78    C    6  px     Val( 2p)     1.18730      -0.06400
    79    C    6  px     Ryd( 3p)     0.00638       1.02621
    80    C    6  py     Val( 2p)     1.02011      -0.09365
    81    C    6  py     Ryd( 3p)     0.00178       0.62302
    82    C    6  pz     Val( 2p)     1.05895      -0.05767
    83    C    6  pz     Ryd( 3p)     0.00368       0.65049
    84    C    6  dxy    Ryd( 3d)     0.00049       1.96131
    85    C    6  dxz    Ryd( 3d)     0.00061       2.24006
    86    C    6  dyz    Ryd( 3d)     0.00054       2.20453
    87    C    6  dx2y2  Ryd( 3d)     0.00072       2.06430
    88    C    6  dz2    Ryd( 3d)     0.00071       2.16396
 
    89    C    7  S      Cor( 1S)     1.99890     -10.10247
    90    C    7  S      Val( 2S)     0.93320      -0.13604
    91    C    7  S      Ryd( 3S)     0.00280       0.69990
    92    C    7  px     Val( 2p)     1.10871      -0.05502
    93    C    7  px     Ryd( 3p)     0.00525       0.78167
    94    C    7  py     Val( 2p)     1.03051      -0.09715
    95    C    7  py     Ryd( 3p)     0.00331       0.79446
    96    C    7  pz     Val( 2p)     1.12043      -0.06996
    97    C    7  pz     Ryd( 3p)     0.00614       0.88180
    98    C    7  dxy    Ryd( 3d)     0.00059       2.05314
    99    C    7  dxz    Ryd( 3d)     0.00073       2.29802
   100    C    7  dyz    Ryd( 3d)     0.00061       2.08834
   101    C    7  dx2y2  Ryd( 3d)     0.00049       2.20563
   102    C    7  dz2    Ryd( 3d)     0.00062       2.10544
 
   103    C    8  S      Cor( 1S)     1.99891     -10.10622
   104    C    8  S      Val( 2S)     0.94202      -0.16873
   105    C    8  S      Ryd( 3S)     0.00396       0.65095
   106    C    8  px     Val( 2p)     1.05688      -0.11395
   107    C    8  px     Ryd( 3p)     0.00221       0.73384
   108    C    8  py     Val( 2p)     1.20390      -0.13469
   109    C    8  py     Ryd( 3p)     0.00983       1.06041
   110    C    8  pz     Val( 2p)     1.11882      -0.07625
   111    C    8  pz     Ryd( 3p)     0.00432       0.91135
   112    C    8  dxy    Ryd( 3d)     0.00101       2.00343
   113    C    8  dxz    Ryd( 3d)     0.00067       2.05778
   114    C    8  dyz    Ryd( 3d)     0.00078       2.37736
   115    C    8  dx2y2  Ryd( 3d)     0.00071       2.04833
   116    C    8  dz2    Ryd( 3d)     0.00080       2.29195
 
   117    C    9  S      Cor( 1S)     1.99890     -10.09263
   118    C    9  S      Val( 2S)     0.92359      -0.12098
   119    C    9  S      Ryd( 3S)     0.00197       0.63581
   120    C    9  px     Val( 2p)     1.03300      -0.09180
   121    C    9  px     Ryd( 3p)     0.00245       0.70707
   122    C    9  py     Val( 2p)     1.11992      -0.04942
   123    C    9  py     Ryd( 3p)     0.00539       0.88561
   124    C    9  pz     Val( 2p)     1.12993      -0.04629
   125    C    9  pz     Ryd( 3p)     0.00549       0.90304
   126    C    9  dxy    Ryd( 3d)     0.00060       2.01157
   127    C    9  dxz    Ryd( 3d)     0.00051       1.99370
   128    C    9  dyz    Ryd( 3d)     0.00079       2.31210
   129    C    9  dx2y2  Ryd( 3d)     0.00049       2.14758
   130    C    9  dz2    Ryd( 3d)     0.00058       2.29954
 
   131    C   10  S      Cor( 1S)     1.99894     -10.09741
   132    C   10  S      Val( 2S)     0.93978      -0.12980
   133    C   10  S      Ryd( 3S)     0.00119       0.59276
   134    C   10  px     Val( 2p)     1.00885      -0.08892
   135    C   10  px     Ryd( 3p)     0.00130       0.60731
   136    C   10  py     Val( 2p)     1.07953      -0.03675
   137    C   10  py     Ryd( 3p)     0.00405       0.70272
   138    C   10  pz     Val( 2p)     1.17034      -0.05196
   139    C   10  pz     Ryd( 3p)     0.00621       0.99485
   140    C   10  dxy    Ryd( 3d)     0.00062       2.07092
   141    C   10  dxz    Ryd( 3d)     0.00044       1.93761
   142    C   10  dyz    Ryd( 3d)     0.00074       2.29962
   143    C   10  dx2y2  Ryd( 3d)     0.00056       2.19428
   144    C   10  dz2    Ryd( 3d)     0.00076       2.16855
 
   145    C   11  S      Cor( 1S)     1.99895     -10.09560
   146    C   11  S      Val( 2S)     0.94236      -0.13151
   147    C   11  S      Ryd( 3S)     0.00131       0.58472
   148    C   11  px     Val( 2p)     1.02764      -0.08972
   149    C   11  px     Ryd( 3p)     0.00175       0.61538
   150    C   11  py     Val( 2p)     1.17348      -0.05183
   151    C   11  py     Ryd( 3p)     0.00572       1.00314
   152    C   11  pz     Val( 2p)     1.07528      -0.03586
   153    C   11  pz     Ryd( 3p)     0.00408       0.67779
   154    C   11  dxy    Ryd( 3d)     0.00047       1.93329
   155    C   11  dxz    Ryd( 3d)     0.00058       2.05595
   156    C   11  dyz    Ryd( 3d)     0.00068       2.31131
   157    C   11  dx2y2  Ryd( 3d)     0.00062       2.03268
   158    C   11  dz2    Ryd( 3d)     0.00069       2.32107
 
   159    C   12  S      Cor( 1S)     1.99894     -10.09716
   160    C   12  S      Val( 2S)     0.94017      -0.12980
   161    C   12  S      Ryd( 3S)     0.00119       0.59486
   162    C   12  px     Val( 2p)     1.02070      -0.09087
   163    C   12  px     Ryd( 3p)     0.00161       0.64772
   164    C   12  py     Val( 2p)     1.10712      -0.04078
   165    C   12  py     Ryd( 3p)     0.00480       0.79440
   166    C   12  pz     Val( 2p)     1.12950      -0.04498
   167    C   12  pz     Ryd( 3p)     0.00518       0.86007
   168    C   12  dxy    Ryd( 3d)     0.00061       2.00013
   169    C   12  dxz    Ryd( 3d)     0.00060       1.96188
   170    C   12  dyz    Ryd( 3d)     0.00082       2.30486
   171    C   12  dx2y2  Ryd( 3d)     0.00048       2.13846
   172    C   12  dz2    Ryd( 3d)     0.00061       2.25919
 
   173    C   13  S      Cor( 1S)     1.99890     -10.09217
   174    C   13  S      Val( 2S)     0.92549      -0.12169
   175    C   13  S      Ryd( 3S)     0.00187       0.60846
   176    C   13  px     Val( 2p)     1.01490      -0.09121
   177    C   13  px     Ryd( 3p)     0.00163       0.63883
   178    C   13  py     Val( 2p)     1.08851      -0.04397
   179    C   13  py     Ryd( 3p)     0.00435       0.79375
   180    C   13  pz     Val( 2p)     1.18102      -0.05393
   181    C   13  pz     Ryd( 3p)     0.00683       1.00213
   182    C   13  dxy    Ryd( 3d)     0.00055       2.06347
   183    C   13  dxz    Ryd( 3d)     0.00043       1.94654
   184    C   13  dyz    Ryd( 3d)     0.00074       2.31646
   185    C   13  dx2y2  Ryd( 3d)     0.00053       2.20355
   186    C   13  dz2    Ryd( 3d)     0.00073       2.20475
 
   187    P   14  S      Cor( 1S)     1.99999     -76.43921
   188    P   14  S      Cor( 2S)     1.99892      -7.09031
   189    P   14  S      Val( 3S)     1.29391      -0.38817
   190    P   14  S      Ryd( 4S)     0.00456       0.74033
   191    P   14  px     Cor( 2p)     1.99977      -4.70709
   192    P   14  px     Val( 3p)     0.72512      -0.02040
   193    P   14  px     Ryd( 4p)     0.00430       0.86266
   194    P   14  py     Cor( 2p)     1.99984      -4.70526
   195    P   14  py     Val( 3p)     1.19238      -0.07647
   196    P   14  py     Ryd( 4p)     0.00637       0.86538
   197    P   14  pz     Cor( 2p)     1.99982      -4.70586
   198    P   14  pz     Val( 3p)     0.94930      -0.04973
   199    P   14  pz     Ryd( 4p)     0.00498       0.86799
   200    P   14  dxy    Ryd( 3d)     0.00749       1.12636
   201    P   14  dxz    Ryd( 3d)     0.00427       1.02698
   202    P   14  dyz    Ryd( 3d)     0.00274       0.98738
   203    P   14  dx2y2  Ryd( 3d)     0.00246       0.96493
   204    P   14  dz2    Ryd( 3d)     0.00596       1.08442
 
   205    C   15  S      Cor( 1S)     1.99900     -10.11111
   206    C   15  S      Val( 2S)     0.98736      -0.22330
   207    C   15  S      Ryd( 3S)     0.00547       1.03015
   208    C   15  px     Val( 2p)     1.17817      -0.12953
   209    C   15  px     Ryd( 3p)     0.00394       0.77749
   210    C   15  py     Val( 2p)     1.12522      -0.11855
   211    C   15  py     Ryd( 3p)     0.00540       0.78569
   212    C   15  pz     Val( 2p)     1.21707      -0.09647
   213    C   15  pz     Ryd( 3p)     0.00346       0.82991
   214    C   15  dxy    Ryd( 3d)     0.00131       2.16949
   215    C   15  dxz    Ryd( 3d)     0.00063       2.18273
   216    C   15  dyz    Ryd( 3d)     0.00062       2.07000
   217    C   15  dx2y2  Ryd( 3d)     0.00082       2.11820
   218    C   15  dz2    Ryd( 3d)     0.00114       2.14892
 
   219    C   16  S      Cor( 1S)     1.99926     -10.09579
   220    C   16  S      Val( 2S)     1.06466      -0.22159
   221    C   16  S      Ryd( 3S)     0.00090       0.95962
   222    C   16  px     Val( 2p)     1.22893      -0.07805
   223    C   16  px     Ryd( 3p)     0.00377       0.74895
   224    C   16  py     Val( 2p)     1.10210      -0.06794
   225    C   16  py     Ryd( 3p)     0.00249       0.62508
   226    C   16  pz     Val( 2p)     1.21657      -0.07634
   227    C   16  pz     Ryd( 3p)     0.00268       0.68936
   228    C   16  dxy    Ryd( 3d)     0.00083       2.10734
   229    C   16  dxz    Ryd( 3d)     0.00056       2.08846
   230    C   16  dyz    Ryd( 3d)     0.00044       2.00164
   231    C   16  dx2y2  Ryd( 3d)     0.00037       2.06779
   232    C   16  dz2    Ryd( 3d)     0.00070       2.09197
 
   233    C   17  S      Cor( 1S)     1.99857     -10.10165
   234    C   17  S      Val( 2S)     0.93325      -0.18710
   235    C   17  S      Ryd( 3S)     0.00422       0.93459
   236    C   17  px     Val( 2p)     1.09010      -0.11854
   237    C   17  px     Ryd( 3p)     0.00682       0.85068
   238    C   17  py     Val( 2p)     1.11975      -0.13917
   239    C   17  py     Ryd( 3p)     0.00756       0.95822
   240    C   17  pz     Val( 2p)     1.21698      -0.15083
   241    C   17  pz     Ryd( 3p)     0.00763       0.99407
   242    C   17  dxy    Ryd( 3d)     0.00072       2.28527
   243    C   17  dxz    Ryd( 3d)     0.00096       2.27629
   244    C   17  dyz    Ryd( 3d)     0.00111       2.18344
   245    C   17  dx2y2  Ryd( 3d)     0.00102       2.05882
   246    C   17  dz2    Ryd( 3d)     0.00075       2.17099
 
   247    C   18  S      Cor( 1S)     1.99861     -10.10395
   248    C   18  S      Val( 2S)     0.82922      -0.11449
   249    C   18  S      Ryd( 3S)     0.00492       0.96857
   250    C   18  px     Val( 2p)     1.02880      -0.11311
   251    C   18  px     Ryd( 3p)     0.00941       1.06511
   252    C   18  py     Val( 2p)     1.08561      -0.08967
   253    C   18  py     Ryd( 3p)     0.00596       0.94923
   254    C   18  pz     Val( 2p)     1.08633      -0.08444
   255    C   18  pz     Ryd( 3p)     0.00664       0.93474
   256    C   18  dxy    Ryd( 3d)     0.00089       2.29038
   257    C   18  dxz    Ryd( 3d)     0.00095       2.24539
   258    C   18  dyz    Ryd( 3d)     0.00065       2.24215
   259    C   18  dx2y2  Ryd( 3d)     0.00087       2.18496
   260    C   18  dz2    Ryd( 3d)     0.00112       2.22486
 
   261    C   19  S      Cor( 1S)     1.99864     -10.09768
   262    C   19  S      Val( 2S)     0.93082      -0.15013
   263    C   19  S      Ryd( 3S)     0.00270       0.84687
   264    C   19  px     Val( 2p)     1.04411      -0.09351
   265    C   19  px     Ryd( 3p)     0.00484       0.76618
   266    C   19  py     Val( 2p)     1.18281      -0.08349
   267    C   19  py     Ryd( 3p)     0.00386       0.95457
   268    C   19  pz     Val( 2p)     1.06073      -0.07950
   269    C   19  pz     Ryd( 3p)     0.00636       0.74400
   270    C   19  dxy    Ryd( 3d)     0.00076       2.23318
   271    C   19  dxz    Ryd( 3d)     0.00064       2.26536
   272    C   19  dyz    Ryd( 3d)     0.00097       2.20690
   273    C   19  dx2y2  Ryd( 3d)     0.00090       2.10951
   274    C   19  dz2    Ryd( 3d)     0.00089       2.17371
 
   275    C   20  S      Cor( 1S)     1.99866     -10.10288
   276    C   20  S      Val( 2S)     0.94308      -0.15855
   277    C   20  S      Ryd( 3S)     0.00254       0.84457
   278    C   20  px     Val( 2p)     1.10759      -0.08240
   279    C   20  px     Ryd( 3p)     0.00445       0.76791
   280    C   20  py     Val( 2p)     1.03956      -0.07399
   281    C   20  py     Ryd( 3p)     0.00545       0.61457
   282    C   20  pz     Val( 2p)     1.11560      -0.08922
   283    C   20  pz     Ryd( 3p)     0.00689       0.88022
   284    C   20  dxy    Ryd( 3d)     0.00060       2.22259
   285    C   20  dxz    Ryd( 3d)     0.00102       2.15786
   286    C   20  dyz    Ryd( 3d)     0.00081       2.26829
   287    C   20  dx2y2  Ryd( 3d)     0.00094       2.04254
   288    C   20  dz2    Ryd( 3d)     0.00091       2.15971
 
   289    C   21  S      Cor( 1S)     1.99865     -10.09890
   290    C   21  S      Val( 2S)     0.93476      -0.15343
   291    C   21  S      Ryd( 3S)     0.00319       0.84863
   292    C   21  px     Val( 2p)     1.12327      -0.08532
   293    C   21  px     Ryd( 3p)     0.00435       0.81627
   294    C   21  py     Val( 2p)     1.10952      -0.09598
   295    C   21  py     Ryd( 3p)     0.00765       0.93620
   296    C   21  pz     Val( 2p)     1.03458      -0.07206
   297    C   21  pz     Ryd( 3p)     0.00650       0.64739
   298    C   21  dxy    Ryd( 3d)     0.00097       2.17174
   299    C   21  dxz    Ryd( 3d)     0.00065       2.22499
   300    C   21  dyz    Ryd( 3d)     0.00076       2.28137
   301    C   21  dx2y2  Ryd( 3d)     0.00079       2.17162
   302    C   21  dz2    Ryd( 3d)     0.00098       2.09221
 
   303    H   22  S      Val( 1S)     0.76165       0.10065
[...]
                                                    604(r),602(r),154(r),615(r)
                                                    612(r),610(r),616(r),400(r)
                                                    618(r),409(r),606(r),391(r)
                                                    338(r),603(r),347(r),605(r)
                                                    371(r),592(r),319(r),162(g)
                                                    387(r),380(r),340(r),329(r)
                                                    373(r),163(g),407(r),382(r)
                                                    311(r),623(r),378(r),416(r)
                                                    398(r),328(r),346(r),389(r)
                                                    369(r),405(r),579(r),626(r)
                                                    404(r),413(r),356(r),396(r)
                                                    395(r),353(r),593(r),385(r)
                                                    326(r),317(r),397(r),559(r)
                                                    331(r),335(r),310(r),377(r)
                                                    344(r),312(r),343(r),376(r)
                                                    336(r),475(r),464(r),599(r)
                                                    597(r),358(r),465(r),394(r)
                                                    327(r),323(r),600(r),557(r)
                                                    596(r),349(r),320(r),348(r)
                                                    354(r),412(r),333(r)
   161. LP*(   7)Fe  31                  0.20784     0.28165  559(r),608(r),164(r),614(r)
                                                    599(r),391(r),557(r),409(r)
                                                    606(r),618(r),362(r),615(r)
                                                    603(r),588(r),359(r),373(r)
                                                    414(r),415(r),558(r),382(r)
                                                    421(r),345(r),610(r),594(r)
                                                    331(r),294(r),348(r),321(r)
                                                    327(r),422(r),387(r),607(r)
                                                    405(r),612(r),220(r),355(r)
                                                    623(r),601(r),598(r),353(r)
                                                    590(r),592(r),417(r),154(r)
                                                    369(r),613(r),292(r),326(r)
                                                    349(r),616(r),394(r)
   162. LP*(   8)Fe  31                  0.20293     0.28838  559(r),154(r),601(r),599(r)
                                                    557(r),614(r),160(g),382(r)
                                                    373(r),340(r),617(r),605(r)
                                                    420(r),400(r),422(r),176(r)
                                                    588(r),414(r),612(r),336(r)
                                                    416(r),358(r),321(r),294(r)
                                                    593(r),309(r),610(r),312(r)
                                                    618(r),397(r),396(r),317(r)
                                                    603(r),600(r),385(r),376(r)
                                                    590(r),592(r),604(r),615(r)
                                                    602(r),589(r),380(r),331(r)
                                                    371(r),598(r),343(r),558(r)
                                                    386(r),417(r)
   163. LP*(   9)Fe  31                  0.12886     0.23339  588(r),364(g),154(r),164(r)
                                                    557(r),626(r),559(r),593(r)
                                                    590(r),326(r),317(r),594(r)
                                                    338(r),353(r),409(r),404(r)
                                                    340(r),623(r),413(r),400(r)
                                                    344(r),347(r),335(r),589(r)
                                                    395(r),329(r),605(r),385(r)
                                                    391(r),373(r),311(r)
   363. RY*(   1)Fe  31                  0.00444     0.60038   
   364. RY*(   2)Fe  31                  0.00065     0.87722   
   365. RY*(   3)Fe  31                  0.00022     1.41943   
   366. RY*(   4)Fe  31                  0.00015     1.42444   
   367. RY*(   5)Fe  31                  0.00005     1.31314   
   368. RY*(   6)Fe  31                  0.00003     1.32920   
       -------------------------------
              Total Lewis   23.52227  ( 90.5421%)
        Valence non-Lewis    2.45156  (  9.4366%)
        Rydberg non-Lewis    0.00554  (  0.0213%)
       -------------------------------
            Total unit  2   25.97937  (100.0000%)
           Charge unit  2    0.02063
 
 Molecular unit  3  (C5H5)
    51. BD (   1) C  32 - C  33          1.96805    -0.64308  160(r),162(r),159(r),615(v)
                                                    618(v),163(r),406(v),388(v)
                                                    610(g),612(g),158(r),611(g)
                                                    609(g),387(v),405(v),154(r)
                                                    311(r)
    52. BD (   2) C  32 - C  33          1.52813    -0.28468  164(v),159(r),162(r),160(r)
                                                    154(r),163(r),614(v),158(r)
                                                    365(r),611(g),618(v),615(v)
                                                    371(g),364(r),601(r),599(r)
                                                    366(r),336(r),367(r)
    53. BD (   1) C  32 - C  36          1.95509    -0.65247  164(g),160(r),163(r),159(r)
                                                    612(v),161(r),617(v),162(r)
                                                    397(v),607(g),158(r),616(g)
                                                    618(g),379(v),610(g),378(v)
                                                    154(r),359(r)
    54. BD (   1) C  32 - H  37          1.98101    -0.53245  162(r),616(v),611(v),160(r)
                                                    161(r),607(g),163(r),609(g)
                                                    363(r)
    55. BD (   1) C  33 - C  34          1.95450    -0.66772  160(r),158(r),161(r),162(r)
                                                    163(r),610(v),617(v),607(g)
                                                    613(g),615(g),612(g),396(v)
                                                    370(v),369(v),154(r),159(r)
                                                    319(r),221(r)
    56. BD (   1) C  33 - H  45          1.98076    -0.53183  162(r),613(v),609(v),160(r)
                                                    161(r),607(g),611(g),163(r)
                                                    389(v),363(r)
    57. BD (   1) C  34 - C  35          1.96623    -0.63844  160(r),159(r),618(v),612(v)
                                                    163(r),161(r),379(v),406(v)
                                                    617(g),615(g),611(g),616(g)
                                                    221(r),162(r),154(r),158(r)
                                                    212(r)
    58. BD (   2) C  34 - C  35          1.52844    -0.27911  164(v),159(r),160(r),163(r)
                                                    608(v),161(r),162(r),154(r)
                                                    158(r),365(r),611(g),618(v)
                                                    364(r),571(r),601(r),221(r)
                                                    363(r),311(r),321(r),559(r)
                                                    176(r),366(r),368(r),314(r)
                                                    220(r)
    59. BD (   1) C  34 - H  38          1.98015    -0.53007  161(r),607(v),616(v),160(r)
                                                    613(g),163(r),611(g),398(v)
                                                    221(r),363(r),571(r),219(r)
                                                    355(r)
    60. BD (   1) C  35 - C  36          1.95586    -0.65202  164(g),160(r),163(r),158(r)
                                                    615(v),610(v),370(v),613(g)
                                                    609(g),388(v),618(g),159(r)
                                                    617(g),162(r),161(r),154(r)
                                                    338(r)
    61. BD (   1) C  35 - H  39          1.98019    -0.52614  160(r),609(v),611(v),162(r)
                                                    613(g),163(r),616(g),389(v)
                                                    363(r),176(r),159(r),221(r)
                                                    161(r)
    62. BD (   1) C  36 - H  40          1.98057    -0.53232  613(v),160(r),607(v),161(r)
                                                    164(g),163(r),616(g),609(g)
                                                    594(r),359(r),363(r),162(r)
   135. CR (   1) C  32                  1.99865   -10.10429  160(r),162(r),163(r),406(v)
                                                    379(v),164(v),161(r),618(v)
                                                    612(v),414(v),616(v),159(r)
                                                    364(r)
   136. CR (   1) C  33                  1.99865   -10.10364  160(r),162(r),163(r),370(v)
                                                    388(v),161(r),615(v),610(v)
                                                    422(v),613(v),158(r),364(r)
   137. CR (   1) C  34                  1.99867   -10.10101  160(r),161(r),163(r),379(v)
                                                    397(v),617(v),612(v),415(v)
                                                    607(v),158(r),159(r),364(r)
   138. CR (   1) C  35                  1.99869   -10.09896  160(r),163(r),406(v),162(r)
                                                    388(v),164(v),416(v),618(v)
                                                    615(v),609(v),159(r),161(r)
                                                    364(r)
   139. CR (   1) C  36                  1.99868   -10.10251  160(r),164(g),161(r),163(r)
                                                    370(v),617(v),610(v),397(v)
                                                    417(v),613(v),396(v),607(v)
                                                    616(g),158(r),364(r)
   164. LP (   1) C  36                  0.99052    -0.12371  158(r),154(r),614(v),608(v)
                                                    159(r),160(r),161(r),616(g)
                                                    609(g),163(r),405(g),617(v)
                                                    610(v),407(g),399(v),372(v)
                                                    397(v),366(r),601(r),368(r)
                                                    162(r),359(r),367(r),364(r)
                                                    594(r),311(r),363(r)
   369. RY*(   1) C  32                  0.00395     0.89196   
   370. RY*(   2) C  32                  0.00363     0.68030   
   371. RY*(   3) C  32                  0.00262     1.14808   
   372. RY*(   4) C  32                  0.00132     1.87782   
   373. RY*(   5) C  32                  0.00094     0.72125   
   374. RY*(   6) C  32                  0.00021     1.96067   
   375. RY*(   7) C  32                  0.00010     2.34239   
   376. RY*(   8) C  32                  0.00006     2.12860   
   377. RY*(   9) C  32                  0.00005     2.10215   
   378. RY*(   1) C  33                  0.00390     0.89612   
   379. RY*(   2) C  33                  0.00366     0.64758   
   380. RY*(   3) C  33                  0.00270     1.19225   
   381. RY*(   4) C  33                  0.00132     1.88194   
   382. RY*(   5) C  33                  0.00093     0.71055   
   383. RY*(   6) C  33                  0.00020     1.96566   
   384. RY*(   7) C  33                  0.00010     2.34341   
   385. RY*(   8) C  33                  0.00005     2.15431   
   386. RY*(   9) C  33                  0.00006     2.07025   
   387. RY*(   1) C  34                  0.00393     0.83978   
   388. RY*(   2) C  34                  0.00367     0.71782   
   389. RY*(   3) C  34                  0.00268     1.31149   
   390. RY*(   4) C  34                  0.00131     1.88810   
   391. RY*(   5) C  34                  0.00092     0.69806   
   392. RY*(   6) C  34                  0.00021     1.99525   
   393. RY*(   7) C  34                  0.00011     2.36860   
   394. RY*(   8) C  34                  0.00007     2.08516   
   395. RY*(   9) C  34                  0.00005     2.14171   
   396. RY*(   1) C  35                  0.00425     0.89232   
   397. RY*(   2) C  35                  0.00398     0.74410   
   398. RY*(   3) C  35                  0.00262     1.27725   
   399. RY*(   4) C  35                  0.00131     1.88898   
   400. RY*(   5) C  35                  0.00100     0.70913   
   401. RY*(   6) C  35                  0.00021     2.00744   
   402. RY*(   7) C  35                  0.00011     2.09703   
   403. RY*(   8) C  35                  0.00011     2.35462   
   404. RY*(   9) C  35                  0.00005     2.18181   
   405. RY*(   1) C  36                  0.00405     0.90134   
   406. RY*(   2) C  36                  0.00365     0.65827   
   407. RY*(   3) C  36                  0.00259     1.24068   
   408. RY*(   4) C  36                  0.00109     1.90108   
   409. RY*(   5) C  36                  0.00093     0.69760   
   410. RY*(   6) C  36                  0.00020     1.98279   
   411. RY*(   7) C  36                  0.00010     2.35217   
   412. RY*(   8) C  36                  0.00007     2.08258   
   413. RY*(   9) C  36                  0.00005     2.15696   
   414. RY*(   1) H  37                  0.00118     0.35397   
   415. RY*(   1) H  38                  0.00147     0.40620   
   416. RY*(   1) H  39                  0.00343     0.52722   
   417. RY*(   1) H  40                  0.00147     0.38638   
   422. RY*(   1) H  45                  0.00115     0.35755   
   607. BD*(   1) C  32 - C  33          0.03091     0.51774   
   608. BD*(   2) C  32 - C  33          0.47034     0.04628  614(v),164(v),607(g),161(r)
                                                    601(r),158(r),378(g),369(g)
                                                    159(r),371(g),380(g),599(r)
                                                    571(r),368(r),366(r),154(r)
                                                    319(r),321(r)
   609. BD*(   1) C  32 - C  36          0.02848     0.52619   
   610. BD*(   1) C  32 - H  37          0.01608     0.49361   
   611. BD*(   1) C  33 - C  34          0.01357     0.54377   
   612. BD*(   1) C  33 - H  45          0.01603     0.49442   
   613. BD*(   1) C  34 - C  35          0.03042     0.52025   
   614. BD*(   2) C  34 - C  35          0.47351     0.04668  608(v),164(v),158(r),613(g)
                                                    161(r),599(r),601(r),162(r)
                                                    387(g),396(g),561(r),388(g)
                                                    398(g),367(r),571(r),366(r)
                                                    159(r),160(r)
   615. BD*(   1) C  34 - H  38          0.01641     0.50107   
   616. BD*(   1) C  35 - C  36          0.02929     0.53344   
   617. BD*(   1) C  35 - H  39          0.01649     0.51837   
   618. BD*(   1) C  36 - H  40          0.01685     0.49548   
       -------------------------------
              Total Lewis   33.74284  ( 96.4769%)
        Valence non-Lewis    1.15837  (  3.3120%)
        Rydberg non-Lewis    0.07382  (  0.2111%)
       -------------------------------
            Total unit  3   34.97503  (100.0000%)
           Charge unit  3    0.02497
 Leave Link  607 at Fri Sep 29 19:33:46 2023, MaxMem=  4026531840 cpu:              34.0 elap:               3.4
 (Enter /sw/arch/RHEL8/EB_production/2022/software/Gaussian/g16.c02/l9999.exe)
 Unable to Open any file for archive entry.
 1\1\GINC-TCN546\SP\RPBE1PBE\def2SVPP\C36H44Fe1P2\ADARSH\29-Sep-2023\0\
 \#p pop=nbo pbe1pbe/def2svpp empiricaldispersion=gd3bj integral=grid=u
 ltrafinegrid scf=(xqc,maxconventionalcycles=90) nosymm\\Cisa\\0,1\P,0,
 0.19631,0.89394,-0.78002\C,0,1.10303,0.37817,-2.27172\C,0,0.4081,-0.30
 721,-3.27478\C,0,1.08424,-0.78013,-4.39973\C,0,2.45379,-0.55455,-4.533
 68\C,0,3.14849,0.14239,-3.54215\C,0,2.47855,0.60234,-2.41177\C,0,0.823
 89,2.55133,-0.35144\C,0,0.61919,3.0473,0.94534\C,0,0.93407,4.36852,1.2
 5161\C,0,1.44552,5.21549,0.26667\C,0,1.63554,4.73463,-1.0274\C,0,1.322
 89,3.41109,-1.33868\P,0,-2.54525,-0.87266,0.0586\C,0,-1.09347,-2.04865
 ,0.18456\C,0,-1.38577,-3.46212,0.67893\C,0,0.70602,-0.17571,0.5834\C,0
 ,0.00654,-1.38031,0.96086\C,0,0.54567,-1.80771,2.21202\C,0,1.57001,-0.
 89886,2.60152\C,0,1.68143,0.10095,1.59902\H,0,-0.67184,-0.46272,-3.165
 41\H,0,3.02773,1.13804,-1.63212\H,0,0.2047,2.39837,1.72151\H,0,1.47041
 ,3.05199,-2.36072\H,0,-0.76696,-2.11891,-0.86909\H,0,-0.44197,-4.03085
 ,0.72027\H,0,-2.06444,-3.99559,-0.0022\H,0,-1.83165,-3.47721,1.68346\H
 ,0,2.38185,0.93527,1.59486\Fe,0,2.00619,-1.7396,0.79004\C,0,3.06117,-3
 .48044,0.9931\C,0,3.94787,-2.36901,0.91504\C,0,3.72225,-1.71213,-0.327
 74\C,0,2.69698,-2.41998,-1.02143\C,0,2.292,-3.51282,-0.20621\H,0,2.971
 35,-4.17051,1.83242\H,0,4.23926,-0.82048,-0.67877\H,0,2.28748,-2.16362
 ,-1.99824\H,0,1.52276,-4.24404,-0.45524\H,0,2.98477,-0.92009,-5.41726\
 H,0,1.69324,6.25274,0.5091\H,0,2.1924,-0.98246,3.49232\H,0,0.26041,-2.
 7067,2.75675\H,0,4.65341,-2.05791,1.68575\H,0,0.77686,4.74052,2.26806\
 H,0,2.03142,5.39301,-1.80584\H,0,4.22215,0.32143,-3.6496\H,0,0.53799,-
 1.32023,-5.17816\C,0,-3.08986,-0.34164,1.75326\C,0,-3.0509,-1.38812,2.
 87143\C,0,-2.34237,0.92651,2.19144\H,0,-4.1493,-0.05997,1.57957\C,0,-3
 .63587,-0.82178,4.16461\H,0,-1.99979,-1.67385,3.05095\H,0,-3.59234,-2.
 30329,2.58499\C,0,-2.91538,1.49069,3.48763\H,0,-1.27567,0.6759,2.33906
 \H,0,-2.3835,1.68366,1.38399\C,0,-2.91162,0.44751,4.59999\H,0,-3.58522
 ,-1.58703,4.95853\H,0,-4.70997,-0.60103,4.01192\H,0,-2.33998,2.38313,3
 .79096\H,0,-3.95243,1.83364,3.30661\H,0,-3.37269,0.85856,5.51454\H,0,-
 1.86492,0.19758,4.85999\C,0,-3.96407,-1.78679,-0.70664\C,0,-3.52937,-2
 .4122,-2.03833\C,0,-4.7702,-2.769,0.14895\H,0,-4.65539,-0.95468,-0.947
 14\C,0,-4.72848,-2.95684,-2.80991\H,0,-2.82257,-3.24003,-1.84632\H,0,-
 2.97868,-1.66826,-2.64448\C,0,-5.96019,-3.31224,-0.64287\H,0,-4.13543,
 -3.60892,0.47829\H,0,-5.13626,-2.26855,1.0608\C,0,-5.5281,-3.94179,-1.
 96301\H,0,-4.3869,-3.43513,-3.74422\H,0,-5.38299,-2.11482,-3.10942\H,0
 ,-6.51021,-4.04436,-0.02684\H,0,-6.66608,-2.48409,-0.84715\H,0,-6.4093
 7,-4.29964,-2.52236\H,0,-4.90572,-4.83418,-1.75764\\Version=ES64L-G16R
 evC.02\HF=-3341.2990058\RMSD=8.894e-09\Dipole=0.1924537,-0.6595718,0.1
 296866\Quadrupole=-1.1501975,-2.6510477,3.8012452,6.5319456,-0.2809977
 ,1.1877757\PG=C01 [X(C36H44Fe1P2)]\\@
 The archive entry for this job was punched.


 ... SUBJECTS WHICH DISCLOSE THEIR FULL POWER, MEANING AND BEAUTY AS SOON
 AS THEY ARE PRESENTED TO THE MIND HAVE VERY LITTLE OF THOSE QUALITIES
 TO DISCLOSE.
                           -- CHARLES DUTTON (1882)
 Job cpu time:       0 days  1 hours  3 minutes 44.3 seconds.
 Elapsed time:       0 days  0 hours  2 minutes 13.7 seconds.
 File lengths (MBytes):  RWF=    448 Int=      0 D2E=      0 Chk=     32 Scr=     32
 Normal termination of Gaussian 16 at Fri Sep 29 19:33:46 2023.
