 Entering Gaussian System, Link 0=g16
 Input=free_ligand_L4_SP.inp
 Output=free_ligand_L4_SP.log
 Initial command:
 /sw/arch/Centos8/EB_production/2021/software/Gaussian/g16.c01/l1.exe "/scratch-local/adarsh.3296453/Gau-2283992.inp" -scrdir="/scratch-local/adarsh.3296453/"
 Entering Link 1 = /sw/arch/Centos8/EB_production/2021/software/Gaussian/g16.c01/l1.exe PID=   2283993.
  
 Copyright (c) 1988-2019, Gaussian, Inc.  All Rights Reserved.
  
 This is part of the Gaussian(R) 16 program.  It is based on
 the Gaussian(R) 09 system (copyright 2009, Gaussian, Inc.),
 the Gaussian(R) 03 system (copyright 2003, Gaussian, Inc.),
 the Gaussian(R) 98 system (copyright 1998, Gaussian, Inc.),
 the Gaussian(R) 94 system (copyright 1995, Gaussian, Inc.),
 the Gaussian 92(TM) system (copyright 1992, Gaussian, Inc.),
 the Gaussian 90(TM) system (copyright 1990, Gaussian, Inc.),
 the Gaussian 88(TM) system (copyright 1988, Gaussian, Inc.),
 the Gaussian 86(TM) system (copyright 1986, Carnegie Mellon
 University), and the Gaussian 82(TM) system (copyright 1983,
 Carnegie Mellon University). Gaussian is a federally registered
 trademark of Gaussian, Inc.
  
 This software contains proprietary and confidential information,
 including trade secrets, belonging to Gaussian, Inc.
  
 This software is provided under written license and may be
 used, copied, transmitted, or stored only in accord with that
 written license.
  
 The following legend is applicable only to US Government
 contracts under FAR:
  
                    RESTRICTED RIGHTS LEGEND
  
 Use, reproduction and disclosure by the US Government is
 subject to restrictions as set forth in subparagraphs (a)
 and (c) of the Commercial Computer Software - Restricted
 Rights clause in FAR 52.227-19.
  
 Gaussian, Inc.
 340 Quinnipiac St., Bldg. 40, Wallingford CT 06492
  
  
 ---------------------------------------------------------------
 Warning -- This program may not be used in any manner that
 competes with the business of Gaussian, Inc. or will provide
 assistance to any competitor of Gaussian, Inc.  The licensee
 of this program is prohibited from giving any competitor of
 Gaussian, Inc. access to this program.  By using this program,
 the user acknowledges that Gaussian, Inc. is engaged in the
 business of creating and licensing software in the field of
 computational chemistry and represents and warrants to the
 licensee that it is not a competitor of Gaussian, Inc. and that
 it will not use this program in any manner prohibited above.
 ---------------------------------------------------------------
  

 Cite this work as:
 Gaussian 16, Revision C.01,
 M. J. Frisch, G. W. Trucks, H. B. Schlegel, G. E. Scuseria, 
 M. A. Robb, J. R. Cheeseman, G. Scalmani, V. Barone, 
 G. A. Petersson, H. Nakatsuji, X. Li, M. Caricato, A. V. Marenich, 
 J. Bloino, B. G. Janesko, R. Gomperts, B. Mennucci, H. P. Hratchian, 
 J. V. Ortiz, A. F. Izmaylov, J. L. Sonnenberg, D. Williams-Young, 
 F. Ding, F. Lipparini, F. Egidi, J. Goings, B. Peng, A. Petrone, 
 T. Henderson, D. Ranasinghe, V. G. Zakrzewski, J. Gao, N. Rega, 
 G. Zheng, W. Liang, M. Hada, M. Ehara, K. Toyota, R. Fukuda, 
 J. Hasegawa, M. Ishida, T. Nakajima, Y. Honda, O. Kitao, H. Nakai, 
 T. Vreven, K. Throssell, J. A. Montgomery, Jr., J. E. Peralta, 
 F. Ogliaro, M. J. Bearpark, J. J. Heyd, E. N. Brothers, K. N. Kudin, 
 V. N. Staroverov, T. A. Keith, R. Kobayashi, J. Normand, 
 K. Raghavachari, A. P. Rendell, J. C. Burant, S. S. Iyengar, 
 J. Tomasi, M. Cossi, J. M. Millam, M. Klene, C. Adamo, R. Cammi, 
 J. W. Ochterski, R. L. Martin, K. Morokuma, O. Farkas, 
 J. B. Foresman, and D. J. Fox, Gaussian, Inc., Wallingford CT, 2019.
 
 ******************************************
 Gaussian 16:  ES64L-G16RevC.01  3-Jul-2019
                12-Aug-2023 
 ******************************************
 %nprocshared=32
 Will use up to   32 processors via shared memory.
 %mem=30GB
 %chk=free_ligand_L4.chk
 ----------------------------------------------------------------------
 #p pop=nbo NMR pbe1pbe/def2svpp empiricaldispersion=gd3bj integral=gri
 d=ultrafinegrid scf=(xqc,maxconventionalcycles=90) nosymm
 ----------------------------------------------------------------------
 1/38=1,172=1/1;
 2/12=2,15=1,17=6,18=5,40=1/2;
 3/5=43,7=202,11=2,25=1,30=1,74=-13,75=-5,124=41/1,2,3,8;
 4//1;
 5/5=2,8=3,13=1,38=5,85=90/2,8;
 8/6=1,10=90,11=11/1;
 10/13=100,31=1,45=16/2;
 6/7=2,8=2,9=2,10=2,28=1,40=1,64=1/1,7;
 99/9=1/99;
 Leave Link    1 at Sat Aug 12 03:56:00 2023, MaxMem=  4026531840 cpu:              27.9 elap:               0.9
 (Enter /sw/arch/Centos8/EB_production/2021/software/Gaussian/g16.c01/l101.exe)
 ----
 Cisa
 ----
 Symbolic Z-matrix:
 Charge =  0 Multiplicity = 1
 C                    -4.53986  -0.59014  -1.44053 
 C                    -5.09058   0.7142   -1.28594 
 C                    -4.26648   1.62879  -2.00284 
 C                    -3.20276   0.89042  -2.59659 
 C                    -3.37298  -0.48061  -2.25082 
 H                    -4.94043  -1.50695  -1.00775 
 H                    -5.97619   0.97045  -0.70426 
 H                    -4.41444   2.70724  -2.0664 
 H                    -2.39741   1.30225  -3.20617 
 H                    -2.71958  -1.30004  -2.55016 
 Fe                   -3.17887   0.67422  -0.56115 
 C                    -2.65394   2.18376   0.70512 
 C                    -1.49793   1.59552   0.10606 
 C                    -1.47967   0.19435   0.4769 
 C                    -2.65187  -0.03475   1.28156 
 C                    -3.36125   1.18192   1.42033 
 H                    -2.97434   3.2178    0.59195 
 H                    -2.93944  -0.98216   1.73314 
 H                    -4.30261   1.31761   1.95248 
 C                    -0.54595   2.35074  -0.78541 
 H                    -0.57457   1.87713  -1.78249 
 P                    -0.08775  -0.97127   0.33348 
 C                    -0.9234    3.81947  -0.95919 
 H                    -0.23982   4.33006  -1.65284 
 H                    -1.94108   3.88862  -1.37928 
 H                    -0.90762   4.37738  -0.01022 
 P                     1.22186   2.01708  -0.31265 
 C                     1.49152   2.41734   1.43911 
 C                     2.67143   1.93306   2.02567 
 C                     2.9472    2.18353   3.367 
 C                     2.03457   2.90012   4.1429 
 C                     0.855     3.37324   3.56947 
 C                     0.58555   3.14177   2.22098 
 H                     3.87094   1.80494   3.81348 
 H                     2.24231   3.08604   5.20047 
 H                     0.13462   3.9286    4.17649 
 H                    -0.34857   3.50807   1.79337 
 C                     2.16951   3.28308  -1.22877 
 C                     1.94678   3.43908  -2.60663 
 C                     2.67385   4.37188  -3.34055 
 C                     3.64236   5.15535  -2.71053 
 C                     3.86977   5.00704  -1.34436 
 C                     3.13544   4.07951  -0.60393 
 H                     2.48295   4.48923  -4.41111 
 H                     4.21586   5.88647  -3.28716 
 H                     4.62034   5.62439  -0.84267 
 H                     3.31184   3.98827   0.47102 
 H                     1.18703   2.83603  -3.11589 
 H                     3.36827   1.33648   1.42715 
 C                     0.24245  -1.43894   2.12182 
 C                     1.66429  -1.98908   2.28955 
 C                     0.00703  -0.30664   3.1257 
 H                    -0.47943  -2.24994   2.3425 
 C                     1.93148  -2.44417   3.72222 
 H                     2.37984  -1.19187   2.00744 
 H                     1.84271  -2.83115   1.60405 
 C                     0.26266  -0.77101   4.55733 
 H                    -1.01547   0.08999   3.04175 
 H                     0.68702   0.52721   2.89259 
 C                     1.67022  -1.32904   4.72618 
 H                     2.97025  -2.80932   3.80517 
 H                     1.27861  -3.30788   3.95343 
 H                     0.09624   0.07473   5.24723 
 H                    -0.47692  -1.54866   4.83014 
 H                     2.40354  -0.51531   4.56723 
 H                     1.82201  -1.69523   5.75631 
 C                    -0.7696   -2.53951  -0.42924 
 C                     0.14436  -3.75372  -0.21829 
 C                    -2.19323  -2.9203   -0.01968 
 H                    -0.78152  -2.29772  -1.51038 
 C                    -0.33508  -4.94877  -1.0409 
 H                     0.12673  -4.03235   0.85125 
 H                     1.19094  -3.52967  -0.46675 
 C                    -2.69535  -4.11833  -0.82434 
 H                    -2.86758  -2.06763  -0.16459 
 H                    -2.20912  -3.17413   1.05794 
 C                    -1.7711   -5.32269  -0.69377 
 H                     0.33928  -5.80665  -0.87444 
 H                    -0.26548  -4.70005  -2.11799 
 H                    -3.71819  -4.37831  -0.49973 
 H                    -2.77224  -3.82769  -1.89033 
 H                    -1.80568  -5.69723   0.3472 
 H                    -2.12064  -6.15005  -1.33495 
 
 ITRead=  0  0  0  0  0  0  0  0  0  0  0  0  0  0  0  0  0  0  0  0
 ITRead=  0  0  0  0  0  0  0  0  0  0  0  0  0  0  0  0  0  0  0  0
 ITRead=  0  0  0  0  0  0  0  0  0  0  0  0  0  0  0  0  0  0  0  0
 ITRead=  0  0  0  0  0  0  0  0  0  0  0  0  0  0  0  0  0  0  0  0
 ITRead=  0  0  0
 MicOpt= -1 -1 -1 -1 -1 -1 -1 -1 -1 -1 -1 -1 -1 -1 -1 -1 -1 -1 -1 -1
 MicOpt= -1 -1 -1 -1 -1 -1 -1 -1 -1 -1 -1 -1 -1 -1 -1 -1 -1 -1 -1 -1
 MicOpt= -1 -1 -1 -1 -1 -1 -1 -1 -1 -1 -1 -1 -1 -1 -1 -1 -1 -1 -1 -1
 MicOpt= -1 -1 -1 -1 -1 -1 -1 -1 -1 -1 -1 -1 -1 -1 -1 -1 -1 -1 -1 -1
 MicOpt= -1 -1 -1
 NAtoms=     83 NQM=       83 NQMF=       0 NMMI=      0 NMMIF=      0
                NMic=       0 NMicF=      0.
                    Isotopes and Nuclear Properties:
 (Nuclear quadrupole moments (NQMom) in fm**2, nuclear magnetic moments (NMagM)
  in nuclear magnetons)

  Atom         1           2           3           4           5           6           7           8           9          10
 IAtWgt=          12          12          12          12          12           1           1           1           1           1
 AtmWgt=  12.0000000  12.0000000  12.0000000  12.0000000  12.0000000   1.0078250   1.0078250   1.0078250   1.0078250   1.0078250
 NucSpn=           0           0           0           0           0           1           1           1           1           1
 AtZEff=  -0.0000000  -0.0000000  -0.0000000  -0.0000000  -0.0000000  -0.0000000  -0.0000000  -0.0000000  -0.0000000  -0.0000000
 NQMom=    0.0000000   0.0000000   0.0000000   0.0000000   0.0000000   0.0000000   0.0000000   0.0000000   0.0000000   0.0000000
 NMagM=    0.0000000   0.0000000   0.0000000   0.0000000   0.0000000   2.7928460   2.7928460   2.7928460   2.7928460   2.7928460
 AtZNuc=   6.0000000   6.0000000   6.0000000   6.0000000   6.0000000   1.0000000   1.0000000   1.0000000   1.0000000   1.0000000

  Atom        11          12          13          14          15          16          17          18          19          20
 IAtWgt=          56          12          12          12          12          12           1           1           1          12
 AtmWgt=  55.9349393  12.0000000  12.0000000  12.0000000  12.0000000  12.0000000   1.0078250   1.0078250   1.0078250  12.0000000
 NucSpn=           0           0           0           0           0           0           1           1           1           0
 AtZEff=  -0.0000000  -0.0000000  -0.0000000  -0.0000000  -0.0000000  -0.0000000  -0.0000000  -0.0000000  -0.0000000  -0.0000000
 NQMom=    0.0000000   0.0000000   0.0000000   0.0000000   0.0000000   0.0000000   0.0000000   0.0000000   0.0000000   0.0000000
 NMagM=    0.0000000   0.0000000   0.0000000   0.0000000   0.0000000   0.0000000   2.7928460   2.7928460   2.7928460   0.0000000
 AtZNuc=  26.0000000   6.0000000   6.0000000   6.0000000   6.0000000   6.0000000   1.0000000   1.0000000   1.0000000   6.0000000

  Atom        21          22          23          24          25          26          27          28          29          30
 IAtWgt=           1          31          12           1           1           1          31          12          12          12
 AtmWgt=   1.0078250  30.9737634  12.0000000   1.0078250   1.0078250   1.0078250  30.9737634  12.0000000  12.0000000  12.0000000
 NucSpn=           1           1           0           1           1           1           1           0           0           0
 AtZEff=  -0.0000000  -0.0000000  -0.0000000  -0.0000000  -0.0000000  -0.0000000  -0.0000000  -0.0000000  -0.0000000  -0.0000000
 NQMom=    0.0000000   0.0000000   0.0000000   0.0000000   0.0000000   0.0000000   0.0000000   0.0000000   0.0000000   0.0000000
 NMagM=    2.7928460   1.1316000   0.0000000   2.7928460   2.7928460   2.7928460   1.1316000   0.0000000   0.0000000   0.0000000
 AtZNuc=   1.0000000  15.0000000   6.0000000   1.0000000   1.0000000   1.0000000  15.0000000   6.0000000   6.0000000   6.0000000

  Atom        31          32          33          34          35          36          37          38          39          40
 IAtWgt=          12          12          12           1           1           1           1          12          12          12
 AtmWgt=  12.0000000  12.0000000  12.0000000   1.0078250   1.0078250   1.0078250   1.0078250  12.0000000  12.0000000  12.0000000
 NucSpn=           0           0           0           1           1           1           1           0           0           0
 AtZEff=  -0.0000000  -0.0000000  -0.0000000  -0.0000000  -0.0000000  -0.0000000  -0.0000000  -0.0000000  -0.0000000  -0.0000000
 NQMom=    0.0000000   0.0000000   0.0000000   0.0000000   0.0000000   0.0000000   0.0000000   0.0000000   0.0000000   0.0000000
 NMagM=    0.0000000   0.0000000   0.0000000   2.7928460   2.7928460   2.7928460   2.7928460   0.0000000   0.0000000   0.0000000
 AtZNuc=   6.0000000   6.0000000   6.0000000   1.0000000   1.0000000   1.0000000   1.0000000   6.0000000   6.0000000   6.0000000

  Atom        41          42          43          44          45          46          47          48          49          50
 IAtWgt=          12          12          12           1           1           1           1           1           1          12
 AtmWgt=  12.0000000  12.0000000  12.0000000   1.0078250   1.0078250   1.0078250   1.0078250   1.0078250   1.0078250  12.0000000
 NucSpn=           0           0           0           1           1           1           1           1           1           0
 AtZEff=  -0.0000000  -0.0000000  -0.0000000  -0.0000000  -0.0000000  -0.0000000  -0.0000000  -0.0000000  -0.0000000  -0.0000000
 NQMom=    0.0000000   0.0000000   0.0000000   0.0000000   0.0000000   0.0000000   0.0000000   0.0000000   0.0000000   0.0000000
 NMagM=    0.0000000   0.0000000   0.0000000   2.7928460   2.7928460   2.7928460   2.7928460   2.7928460   2.7928460   0.0000000
 AtZNuc=   6.0000000   6.0000000   6.0000000   1.0000000   1.0000000   1.0000000   1.0000000   1.0000000   1.0000000   6.0000000

  Atom        51          52          53          54          55          56          57          58          59          60
 IAtWgt=          12          12           1          12           1           1          12           1           1          12
 AtmWgt=  12.0000000  12.0000000   1.0078250  12.0000000   1.0078250   1.0078250  12.0000000   1.0078250   1.0078250  12.0000000
 NucSpn=           0           0           1           0           1           1           0           1           1           0
 AtZEff=  -0.0000000  -0.0000000  -0.0000000  -0.0000000  -0.0000000  -0.0000000  -0.0000000  -0.0000000  -0.0000000  -0.0000000
 NQMom=    0.0000000   0.0000000   0.0000000   0.0000000   0.0000000   0.0000000   0.0000000   0.0000000   0.0000000   0.0000000
 NMagM=    0.0000000   0.0000000   2.7928460   0.0000000   2.7928460   2.7928460   0.0000000   2.7928460   2.7928460   0.0000000
 AtZNuc=   6.0000000   6.0000000   1.0000000   6.0000000   1.0000000   1.0000000   6.0000000   1.0000000   1.0000000   6.0000000

  Atom        61          62          63          64          65          66          67          68          69          70
 IAtWgt=           1           1           1           1           1           1          12          12          12           1
 AtmWgt=   1.0078250   1.0078250   1.0078250   1.0078250   1.0078250   1.0078250  12.0000000  12.0000000  12.0000000   1.0078250
 NucSpn=           1           1           1           1           1           1           0           0           0           1
 AtZEff=  -0.0000000  -0.0000000  -0.0000000  -0.0000000  -0.0000000  -0.0000000  -0.0000000  -0.0000000  -0.0000000  -0.0000000
 NQMom=    0.0000000   0.0000000   0.0000000   0.0000000   0.0000000   0.0000000   0.0000000   0.0000000   0.0000000   0.0000000
 NMagM=    2.7928460   2.7928460   2.7928460   2.7928460   2.7928460   2.7928460   0.0000000   0.0000000   0.0000000   2.7928460
 AtZNuc=   1.0000000   1.0000000   1.0000000   1.0000000   1.0000000   1.0000000   6.0000000   6.0000000   6.0000000   1.0000000

  Atom        71          72          73          74          75          76          77          78          79          80
 IAtWgt=          12           1           1          12           1           1          12           1           1           1
 AtmWgt=  12.0000000   1.0078250   1.0078250  12.0000000   1.0078250   1.0078250  12.0000000   1.0078250   1.0078250   1.0078250
 NucSpn=           0           1           1           0           1           1           0           1           1           1
 AtZEff=  -0.0000000  -0.0000000  -0.0000000  -0.0000000  -0.0000000  -0.0000000  -0.0000000  -0.0000000  -0.0000000  -0.0000000
 NQMom=    0.0000000   0.0000000   0.0000000   0.0000000   0.0000000   0.0000000   0.0000000   0.0000000   0.0000000   0.0000000
 NMagM=    0.0000000   2.7928460   2.7928460   0.0000000   2.7928460   2.7928460   0.0000000   2.7928460   2.7928460   2.7928460
 AtZNuc=   6.0000000   1.0000000   1.0000000   6.0000000   1.0000000   1.0000000   6.0000000   1.0000000   1.0000000   1.0000000

  Atom        81          82          83
 IAtWgt=           1           1           1
 AtmWgt=   1.0078250   1.0078250   1.0078250
 NucSpn=           1           1           1
 AtZEff=  -0.0000000  -0.0000000  -0.0000000
 NQMom=    0.0000000   0.0000000   0.0000000
 NMagM=    2.7928460   2.7928460   2.7928460
 AtZNuc=   1.0000000   1.0000000   1.0000000
 Leave Link  101 at Sat Aug 12 03:56:01 2023, MaxMem=  4026531840 cpu:               4.2 elap:               0.1
 (Enter /sw/arch/Centos8/EB_production/2021/software/Gaussian/g16.c01/l202.exe)
 Symmetry turned off by external request.
 Stoichiometry    C36H44FeP2
 Framework group  C1[X(C36H44FeP2)]
 Deg. of freedom   243
 Full point group                 C1      NOp   1
                          Input orientation:                          
 ---------------------------------------------------------------------
 Center     Atomic      Atomic             Coordinates (Angstroms)
 Number     Number       Type             X           Y           Z
 ---------------------------------------------------------------------
      1          6           0       -4.539860   -0.590140   -1.440530
      2          6           0       -5.090580    0.714200   -1.285940
      3          6           0       -4.266480    1.628790   -2.002840
      4          6           0       -3.202760    0.890420   -2.596590
      5          6           0       -3.372980   -0.480610   -2.250820
      6          1           0       -4.940430   -1.506950   -1.007750
      7          1           0       -5.976190    0.970450   -0.704260
      8          1           0       -4.414440    2.707240   -2.066400
      9          1           0       -2.397410    1.302250   -3.206170
     10          1           0       -2.719580   -1.300040   -2.550160
     11         26           0       -3.178870    0.674220   -0.561150
     12          6           0       -2.653940    2.183760    0.705120
     13          6           0       -1.497930    1.595520    0.106060
     14          6           0       -1.479670    0.194350    0.476900
     15          6           0       -2.651870   -0.034750    1.281560
     16          6           0       -3.361250    1.181920    1.420330
     17          1           0       -2.974340    3.217800    0.591950
     18          1           0       -2.939440   -0.982160    1.733140
     19          1           0       -4.302610    1.317610    1.952480
     20          6           0       -0.545950    2.350740   -0.785410
     21          1           0       -0.574570    1.877130   -1.782490
     22         15           0       -0.087750   -0.971270    0.333480
     23          6           0       -0.923400    3.819470   -0.959190
     24          1           0       -0.239820    4.330060   -1.652840
     25          1           0       -1.941080    3.888620   -1.379280
     26          1           0       -0.907620    4.377380   -0.010220
     27         15           0        1.221860    2.017080   -0.312650
     28          6           0        1.491520    2.417340    1.439110
     29          6           0        2.671430    1.933060    2.025670
     30          6           0        2.947200    2.183530    3.367000
     31          6           0        2.034570    2.900120    4.142900
     32          6           0        0.855000    3.373240    3.569470
     33          6           0        0.585550    3.141770    2.220980
     34          1           0        3.870940    1.804940    3.813480
     35          1           0        2.242310    3.086040    5.200470
     36          1           0        0.134620    3.928600    4.176490
     37          1           0       -0.348570    3.508070    1.793370
     38          6           0        2.169510    3.283080   -1.228770
     39          6           0        1.946780    3.439080   -2.606630
     40          6           0        2.673850    4.371880   -3.340550
     41          6           0        3.642360    5.155350   -2.710530
     42          6           0        3.869770    5.007040   -1.344360
     43          6           0        3.135440    4.079510   -0.603930
     44          1           0        2.482950    4.489230   -4.411110
     45          1           0        4.215860    5.886470   -3.287160
     46          1           0        4.620340    5.624390   -0.842670
     47          1           0        3.311840    3.988270    0.471020
     48          1           0        1.187030    2.836030   -3.115890
     49          1           0        3.368270    1.336480    1.427150
     50          6           0        0.242450   -1.438940    2.121820
     51          6           0        1.664290   -1.989080    2.289550
     52          6           0        0.007030   -0.306640    3.125700
     53          1           0       -0.479430   -2.249940    2.342500
     54          6           0        1.931480   -2.444170    3.722220
     55          1           0        2.379840   -1.191870    2.007440
     56          1           0        1.842710   -2.831150    1.604050
     57          6           0        0.262660   -0.771010    4.557330
     58          1           0       -1.015470    0.089990    3.041750
     59          1           0        0.687020    0.527210    2.892590
     60          6           0        1.670220   -1.329040    4.726180
     61          1           0        2.970250   -2.809320    3.805170
     62          1           0        1.278610   -3.307880    3.953430
     63          1           0        0.096240    0.074730    5.247230
     64          1           0       -0.476920   -1.548660    4.830140
     65          1           0        2.403540   -0.515310    4.567230
     66          1           0        1.822010   -1.695230    5.756310
     67          6           0       -0.769600   -2.539510   -0.429240
     68          6           0        0.144360   -3.753720   -0.218290
     69          6           0       -2.193230   -2.920300   -0.019680
     70          1           0       -0.781520   -2.297720   -1.510380
     71          6           0       -0.335080   -4.948770   -1.040900
     72          1           0        0.126730   -4.032350    0.851250
     73          1           0        1.190940   -3.529670   -0.466750
     74          6           0       -2.695350   -4.118330   -0.824340
     75          1           0       -2.867580   -2.067630   -0.164590
     76          1           0       -2.209120   -3.174130    1.057940
     77          6           0       -1.771100   -5.322690   -0.693770
     78          1           0        0.339280   -5.806650   -0.874440
     79          1           0       -0.265480   -4.700050   -2.117990
     80          1           0       -3.718190   -4.378310   -0.499730
     81          1           0       -2.772240   -3.827690   -1.890330
     82          1           0       -1.805680   -5.697230    0.347200
     83          1           0       -2.120640   -6.150050   -1.334950
 ---------------------------------------------------------------------
 Rotational constants (GHZ):           0.1029614           0.0760498           0.0590563
 Leave Link  202 at Sat Aug 12 03:56:01 2023, MaxMem=  4026531840 cpu:               0.1 elap:               0.0
 (Enter /sw/arch/Centos8/EB_production/2021/software/Gaussian/g16.c01/l301.exe)
 Standard basis: def2SVPP (5D, 7F)
 Ernie: Thresh=  0.10000D-02 Tol=  0.10000D-05 Strict=F.
   652 basis functions,  1221 primitive gaussians,   692 cartesian basis functions
   158 alpha electrons      158 beta electrons
       nuclear repulsion energy      5874.1338253651 Hartrees.
 IExCor= 1009 DFT=T Ex+Corr=PBE1PBE ExCW=0 ScaHFX=  0.250000
 ScaDFX=  0.750000  0.750000  1.000000  1.000000 ScalE2=  1.000000  1.000000
 IRadAn=      5 IRanWt=     -1 IRanGd=            0 ICorTp=0 IEmpDi=141
 NAtoms=   83 NActive=   83 NUniq=   83 SFac= 1.00D+00 NAtFMM=   60 NAOKFM=T Big=T
 Integral buffers will be    131072 words long.
 Raffenetti 2 integral format.
 Two-electron integral symmetry is turned off.
 R6Disp:  Grimme-D3(BJ) Dispersion energy=       -0.1278044349 Hartrees.
 Nuclear repulsion after empirical dispersion term =     5874.0060209303 Hartrees.
 Leave Link  301 at Sat Aug 12 03:56:01 2023, MaxMem=  4026531840 cpu:               0.8 elap:               0.0
 (Enter /sw/arch/Centos8/EB_production/2021/software/Gaussian/g16.c01/l302.exe)
 NPDir=0 NMtPBC=     1 NCelOv=     1 NCel=       1 NClECP=     1 NCelD=      1
         NCelK=      1 NCelE2=     1 NClLst=     1 CellRange=     0.0.
 One-electron integrals computed using PRISM.
   1 Symmetry operations used in ECPInt.
 ECPInt:  NShTT=   54615 NPrTT=  226814 LenC2=   48076 LenP2D=  125995.
 LDataN:  DoStor=T MaxTD1= 4 Len=   56
 NBasis=   652 RedAO= T EigKep=  2.64D-04  NBF=   652
 NBsUse=   652 1.00D-06 EigRej= -1.00D+00 NBFU=   652
 Precomputing XC quadrature grid using
 IXCGrd= 4 IRadAn=           5 IRanWt=          -1 IRanGd=           0 AccXCQ= 0.00D+00.
 Generated NRdTot=       0 NPtTot=           0 NUsed=           0 NTot=          32
 NSgBfM=   676   676   676   676   676 MxSgAt=    83 MxSgA2=    83.
 Leave Link  302 at Sat Aug 12 03:56:02 2023, MaxMem=  4026531840 cpu:              32.1 elap:               1.0
 (Enter /sw/arch/Centos8/EB_production/2021/software/Gaussian/g16.c01/l303.exe)
 DipDrv:  MaxL=1.
 Leave Link  303 at Sat Aug 12 03:56:02 2023, MaxMem=  4026531840 cpu:               3.1 elap:               0.1
 (Enter /sw/arch/Centos8/EB_production/2021/software/Gaussian/g16.c01/l308.exe)
 Leave Link  308 at Sat Aug 12 03:56:02 2023, MaxMem=  4026531840 cpu:              10.4 elap:               0.4
 (Enter /sw/arch/Centos8/EB_production/2021/software/Gaussian/g16.c01/l401.exe)
 ExpMin= 3.37D-02 ExpMax= 6.09D+04 ExpMxC= 9.15D+03 IAcc=3 IRadAn=         5 AccDes= 0.00D+00
 Harris functional with IExCor= 1009 and IRadAn=       5 diagonalized for initial guess.
 HarFok:  IExCor= 1009 AccDes= 0.00D+00 IRadAn=         5 IDoV= 1 UseB2=F ITyADJ=14
 ICtDFT=  3500011 ScaDFX=  1.000000  1.000000  1.000000  1.000000
 FoFCou: FMM=F IPFlag=           0 FMFlag=      100000 FMFlg1=        2001
         NFxFlg=           0 DoJE=T BraDBF=F KetDBF=T FulRan=T
         wScrn=  0.000000 ICntrl=       500 IOpCl=  0 I1Cent=   200000004 NGrid=           0
         NMat0=    1 NMatS0=      1 NMatT0=    0 NMatD0=    1 NMtDS0=    0 NMtDT0=    0
 Symmetry not used in FoFCou.
 Harris En= -3341.66472900365    
 JPrj=0 DoOrth=F DoCkMO=F.
 Leave Link  401 at Sat Aug 12 03:56:05 2023, MaxMem=  4026531840 cpu:              82.3 elap:               2.6
 (Enter /sw/arch/Centos8/EB_production/2021/software/Gaussian/g16.c01/l502.exe)
 Two-electron integral symmetry not used.
 Closed shell SCF:
 Using DIIS extrapolation, IDIIS=  1040.
 NGot=  4026531840 LenX=  4025542864 LenY=  4025063308
 Requested convergence on RMS density matrix=1.00D-08 within  90 cycles.
 Requested convergence on MAX density matrix=1.00D-06.
 Requested convergence on             energy=1.00D-06.
 No special actions if energy rises.
 Fock matrices will be formed incrementally for  20 cycles.

 Cycle   1  Pass 1  IDiag  1:
 FoFJK:  IHMeth= 1 ICntrl=       0 DoSepK=F KAlg= 0 I1Cent=           0 FoldK=F
 IRaf= 990000000 NMat=       1 IRICut=       1 DoRegI=T DoRafI=F ISym2E= 0 IDoP0=0 IntGTp=1.
 FoFCou: FMM=T IPFlag=           0 FMFlag=      100000 FMFlg1=        2001
         NFxFlg=           0 DoJE=F BraDBF=F KetDBF=F FulRan=T
         wScrn=  0.000000 ICntrl=         0 IOpCl=  0 I1Cent=           0 NGrid=           0
         NMat0=    1 NMatS0=      1 NMatT0=    0 NMatD0=    1 NMtDS0=    0 NMtDT0=    0
 Symmetry not used in FoFCou.
 FMM levels:  10  Number of levels for PrismC:   9
 E= -3340.31768811275    
 DIIS: error= 2.39D-02 at cycle   1 NSaved=   1.
 NSaved= 1 IEnMin= 1 EnMin= -3340.31768811275     IErMin= 1 ErrMin= 2.39D-02
 ErrMax= 2.39D-02  0.00D+00 EMaxC= 1.00D-01 BMatC= 9.06D-01 BMatP= 9.06D-01
 IDIUse=3 WtCom= 7.61D-01 WtEn= 2.39D-01
 Coeff-Com:  0.100D+01
 Coeff-En:   0.100D+01
 Coeff:      0.100D+01
 Gap=     0.209 Goal=   None    Shift=    0.000
 GapD=    0.209 DampG=1.000 DampE=0.250 DampFc=0.2500 IDamp=-1.
 Damping current iteration by 2.50D-01
 RMSDP=4.43D-03 MaxDP=1.71D-01              OVMax= 1.80D-01

 Cycle   2  Pass 1  IDiag  1:
 RMSU=  1.04D-03    CP:  9.78D-01
 E= -3340.65058194181     Delta-E=       -0.332893829058 Rises=F Damp=T
 DIIS: error= 1.15D-02 at cycle   2 NSaved=   2.
 NSaved= 2 IEnMin= 2 EnMin= -3340.65058194181     IErMin= 2 ErrMin= 1.15D-02
 ErrMax= 1.15D-02  0.00D+00 EMaxC= 1.00D-01 BMatC= 2.26D-01 BMatP= 9.06D-01
 IDIUse=3 WtCom= 8.85D-01 WtEn= 1.15D-01
 Coeff-Com: -0.466D+00 0.147D+01
 Coeff-En:   0.000D+00 0.100D+01
 Coeff:     -0.412D+00 0.141D+01
 Gap=     0.288 Goal=   None    Shift=    0.000
 RMSDP=4.34D-03 MaxDP=4.00D-01 DE=-3.33D-01 OVMax= 5.04D-01

 Cycle   3  Pass 1  IDiag  1:
 RMSU=  4.29D-03    CP:  9.65D-01  1.58D+00
 E= -3339.19435190708     Delta-E=        1.456230034724 Rises=F Damp=F
 DIIS: error= 1.53D-01 at cycle   3 NSaved=   3.
 NSaved= 3 IEnMin= 2 EnMin= -3340.65058194181     IErMin= 2 ErrMin= 1.15D-02
 ErrMax= 1.53D-01  0.00D+00 EMaxC= 1.00D-01 BMatC= 3.24D+00 BMatP= 2.26D-01
 IDIUse=2 WtCom= 0.00D+00 WtEn= 1.00D+00
 Coeff-En:   0.000D+00 0.818D+00 0.182D+00
 Coeff:      0.000D+00 0.818D+00 0.182D+00
 Gap=     0.334 Goal=   None    Shift=    0.000
 RMSDP=5.26D-03 MaxDP=4.36D-01 DE= 1.46D+00 OVMax= 3.27D-01

 Cycle   4  Pass 1  IDiag  1:
 RMSU=  1.31D-03    CP:  9.24D-01  2.79D+00 -1.39D-01
 E= -3340.02240392536     Delta-E=       -0.828052018278 Rises=F Damp=F
 DIIS: error= 8.46D-02 at cycle   4 NSaved=   4.
 NSaved= 4 IEnMin= 2 EnMin= -3340.65058194181     IErMin= 2 ErrMin= 1.15D-02
 ErrMax= 8.46D-02  0.00D+00 EMaxC= 1.00D-01 BMatC= 2.13D+00 BMatP= 2.26D-01
 IDIUse=2 WtCom= 0.00D+00 WtEn= 1.00D+00
 EnCoef did     2 forward-backward iterations
 Coeff-En:   0.843D-01 0.000D+00 0.383D+00 0.533D+00
 Coeff:      0.843D-01 0.000D+00 0.383D+00 0.533D+00
 Gap=     0.130 Goal=   None    Shift=    0.000
 RMSDP=2.31D-03 MaxDP=1.93D-01 DE=-8.28D-01 OVMax= 2.46D-01

 Cycle   5  Pass 1  IDiag  1:
 RMSU=  9.47D-04    CP:  9.59D-01  1.49D+00  1.86D-01  5.63D-01
 E= -3341.23374955327     Delta-E=       -1.211345627909 Rises=F Damp=F
 DIIS: error= 1.12D-02 at cycle   5 NSaved=   5.
 NSaved= 5 IEnMin= 5 EnMin= -3341.23374955327     IErMin= 5 ErrMin= 1.12D-02
 ErrMax= 1.12D-02  0.00D+00 EMaxC= 1.00D-01 BMatC= 7.15D-02 BMatP= 2.26D-01
 IDIUse=3 WtCom= 8.88D-01 WtEn= 1.12D-01
 Coeff-Com: -0.582D+00 0.797D+00 0.191D-01-0.549D-01 0.822D+00
 Coeff-En:   0.000D+00 0.000D+00 0.000D+00 0.528D-01 0.947D+00
 Coeff:     -0.517D+00 0.707D+00 0.169D-01-0.428D-01 0.836D+00
 Gap=     0.158 Goal=   None    Shift=    0.000
 RMSDP=6.42D-04 MaxDP=3.66D-02 DE=-1.21D+00 OVMax= 3.88D-02

 Cycle   6  Pass 1  IDiag  1:
 RMSU=  2.64D-04    CP:  9.49D-01  1.98D+00  1.66D-01  4.17D-01  9.17D-01
 E= -3341.29650856414     Delta-E=       -0.062759010865 Rises=F Damp=F
 DIIS: error= 2.10D-03 at cycle   6 NSaved=   6.
 NSaved= 6 IEnMin= 6 EnMin= -3341.29650856414     IErMin= 6 ErrMin= 2.10D-03
 ErrMax= 2.10D-03  0.00D+00 EMaxC= 1.00D-01 BMatC= 2.81D-03 BMatP= 7.15D-02
 IDIUse=3 WtCom= 9.79D-01 WtEn= 2.10D-02
 Coeff-Com: -0.288D+00 0.389D+00 0.623D-02-0.374D-01 0.445D+00 0.486D+00
 Coeff-En:   0.000D+00 0.000D+00 0.000D+00 0.000D+00 0.000D+00 0.100D+01
 Coeff:     -0.282D+00 0.380D+00 0.610D-02-0.366D-01 0.436D+00 0.496D+00
 Gap=     0.156 Goal=   None    Shift=    0.000
 RMSDP=1.49D-04 MaxDP=1.34D-02 DE=-6.28D-02 OVMax= 7.69D-03

 Cycle   7  Pass 1  IDiag  1:
 RMSU=  8.41D-05    CP:  9.51D-01  1.93D+00  1.64D-01  4.31D-01  9.55D-01
                    CP:  6.33D-01
 E= -3341.29878532090     Delta-E=       -0.002276756761 Rises=F Damp=F
 DIIS: error= 3.63D-04 at cycle   7 NSaved=   7.
 NSaved= 7 IEnMin= 7 EnMin= -3341.29878532090     IErMin= 7 ErrMin= 3.63D-04
 ErrMax= 3.63D-04  0.00D+00 EMaxC= 1.00D-01 BMatC= 1.63D-04 BMatP= 2.81D-03
 IDIUse=3 WtCom= 9.96D-01 WtEn= 3.63D-03
 Coeff-Com: -0.674D-01 0.866D-01-0.524D-04-0.128D-01 0.113D+00 0.267D+00
 Coeff-Com:  0.613D+00
 Coeff-En:   0.000D+00 0.000D+00 0.000D+00 0.000D+00 0.000D+00 0.000D+00
 Coeff-En:   0.100D+01
 Coeff:     -0.672D-01 0.862D-01-0.522D-04-0.128D-01 0.113D+00 0.266D+00
 Coeff:      0.615D+00
 Gap=     0.156 Goal=   None    Shift=    0.000
 RMSDP=5.45D-05 MaxDP=4.99D-03 DE=-2.28D-03 OVMax= 3.93D-03

 Cycle   8  Pass 1  IDiag  1:
 RMSU=  3.78D-05    CP:  9.50D-01  1.93D+00  1.59D-01  4.37D-01  9.55D-01
                    CP:  7.10D-01  7.03D-01
 E= -3341.29895490372     Delta-E=       -0.000169582821 Rises=F Damp=F
 DIIS: error= 1.74D-04 at cycle   8 NSaved=   8.
 NSaved= 8 IEnMin= 8 EnMin= -3341.29895490372     IErMin= 8 ErrMin= 1.74D-04
 ErrMax= 1.74D-04  0.00D+00 EMaxC= 1.00D-01 BMatC= 3.84D-05 BMatP= 1.63D-04
 IDIUse=3 WtCom= 9.98D-01 WtEn= 1.74D-03
 Coeff-Com:  0.628D-02-0.115D-01-0.101D-02-0.248D-02-0.633D-02 0.783D-01
 Coeff-Com:  0.375D+00 0.562D+00
 Coeff-En:   0.000D+00 0.000D+00 0.000D+00 0.000D+00 0.000D+00 0.000D+00
 Coeff-En:   0.742D-01 0.926D+00
 Coeff:      0.627D-02-0.114D-01-0.101D-02-0.248D-02-0.632D-02 0.781D-01
 Coeff:      0.374D+00 0.562D+00
 Gap=     0.156 Goal=   None    Shift=    0.000
 RMSDP=2.11D-05 MaxDP=1.47D-03 DE=-1.70D-04 OVMax= 1.69D-03

 Cycle   9  Pass 1  IDiag  1:
 RMSU=  1.49D-05    CP:  9.50D-01  1.94D+00  1.58D-01  4.38D-01  9.55D-01
                    CP:  7.18D-01  8.26D-01  7.76D-01
 E= -3341.29900003525     Delta-E=       -0.000045131528 Rises=F Damp=F
 DIIS: error= 5.61D-05 at cycle   9 NSaved=   9.
 NSaved= 9 IEnMin= 9 EnMin= -3341.29900003525     IErMin= 9 ErrMin= 5.61D-05
 ErrMax= 5.61D-05  0.00D+00 EMaxC= 1.00D-01 BMatC= 2.46D-06 BMatP= 3.84D-05
 IDIUse=1 WtCom= 1.00D+00 WtEn= 0.00D+00
 Coeff-Com:  0.103D-01-0.142D-01-0.530D-03 0.247D-03-0.174D-01-0.642D-02
 Coeff-Com:  0.610D-01 0.237D+00 0.730D+00
 Coeff:      0.103D-01-0.142D-01-0.530D-03 0.247D-03-0.174D-01-0.642D-02
 Coeff:      0.610D-01 0.237D+00 0.730D+00
 Gap=     0.156 Goal=   None    Shift=    0.000
 RMSDP=8.42D-06 MaxDP=4.48D-04 DE=-4.51D-05 OVMax= 7.31D-04

 Cycle  10  Pass 1  IDiag  1:
 RMSU=  6.06D-06    CP:  9.50D-01  1.94D+00  1.57D-01  4.40D-01  9.55D-01
                    CP:  7.21D-01  8.32D-01  8.74D-01  9.78D-01
 E= -3341.29900289347     Delta-E=       -0.000002858222 Rises=F Damp=F
 DIIS: error= 5.74D-05 at cycle  10 NSaved=  10.
 NSaved=10 IEnMin=10 EnMin= -3341.29900289347     IErMin= 9 ErrMin= 5.61D-05
 ErrMax= 5.74D-05  0.00D+00 EMaxC= 1.00D-01 BMatC= 1.33D-06 BMatP= 2.46D-06
 IDIUse=1 WtCom= 1.00D+00 WtEn= 0.00D+00
 Coeff-Com:  0.447D-02-0.573D-02-0.294D-03 0.451D-03-0.852D-02-0.135D-01
 Coeff-Com: -0.149D-01 0.636D-01 0.454D+00 0.521D+00
 Coeff:      0.447D-02-0.573D-02-0.294D-03 0.451D-03-0.852D-02-0.135D-01
 Coeff:     -0.149D-01 0.636D-01 0.454D+00 0.521D+00
 Gap=     0.156 Goal=   None    Shift=    0.000
 RMSDP=3.19D-06 MaxDP=1.73D-04 DE=-2.86D-06 OVMax= 2.87D-04

 Cycle  11  Pass 1  IDiag  1:
 RMSU=  1.67D-06    CP:  9.50D-01  1.94D+00  1.57D-01  4.40D-01  9.55D-01
                    CP:  7.22D-01  8.36D-01  8.88D-01  1.07D+00  7.43D-01
 E= -3341.29900403647     Delta-E=       -0.000001143002 Rises=F Damp=F
 DIIS: error= 3.74D-05 at cycle  11 NSaved=  11.
 NSaved=11 IEnMin=11 EnMin= -3341.29900403647     IErMin=11 ErrMin= 3.74D-05
 ErrMax= 3.74D-05  0.00D+00 EMaxC= 1.00D-01 BMatC= 3.20D-07 BMatP= 1.33D-06
 IDIUse=1 WtCom= 1.00D+00 WtEn= 0.00D+00
 Coeff-Com:  0.104D-02-0.116D-02-0.177D-03 0.300D-03-0.226D-02-0.642D-02
 Coeff-Com: -0.170D-01 0.468D-02 0.172D+00 0.284D+00 0.565D+00
 Coeff:      0.104D-02-0.116D-02-0.177D-03 0.300D-03-0.226D-02-0.642D-02
 Coeff:     -0.170D-01 0.468D-02 0.172D+00 0.284D+00 0.565D+00
 Gap=     0.156 Goal=   None    Shift=    0.000
 RMSDP=1.07D-06 MaxDP=5.14D-05 DE=-1.14D-06 OVMax= 9.77D-05

 Cycle  12  Pass 1  IDiag  1:
 RMSU=  7.18D-07    CP:  9.50D-01  1.94D+00  1.57D-01  4.40D-01  9.55D-01
                    CP:  7.22D-01  8.38D-01  8.91D-01  1.08D+00  7.64D-01
                    CP:  7.82D-01
 E= -3341.29900423968     Delta-E=       -0.000000203207 Rises=F Damp=F
 DIIS: error= 1.85D-05 at cycle  12 NSaved=  12.
 NSaved=12 IEnMin=12 EnMin= -3341.29900423968     IErMin=12 ErrMin= 1.85D-05
 ErrMax= 1.85D-05  0.00D+00 EMaxC= 1.00D-01 BMatC= 7.49D-08 BMatP= 3.20D-07
 IDIUse=1 WtCom= 1.00D+00 WtEn= 0.00D+00
 Coeff-Com: -0.302D-03 0.452D-03-0.786D-04 0.131D-03 0.555D-03-0.249D-03
 Coeff-Com: -0.508D-02-0.837D-02 0.404D-02 0.382D-01 0.231D+00 0.739D+00
 Coeff:     -0.302D-03 0.452D-03-0.786D-04 0.131D-03 0.555D-03-0.249D-03
 Coeff:     -0.508D-02-0.837D-02 0.404D-02 0.382D-01 0.231D+00 0.739D+00
 Gap=     0.156 Goal=   None    Shift=    0.000
 RMSDP=7.13D-07 MaxDP=5.02D-05 DE=-2.03D-07 OVMax= 8.48D-05

 Cycle  13  Pass 1  IDiag  1:
 RMSU=  3.36D-07    CP:  9.50D-01  1.94D+00  1.57D-01  4.40D-01  9.54D-01
                    CP:  7.22D-01  8.37D-01  8.94D-01  1.10D+00  7.82D-01
                    CP:  9.31D-01  1.09D+00
 E= -3341.29900429257     Delta-E=       -0.000000052893 Rises=F Damp=F
 DIIS: error= 6.23D-06 at cycle  13 NSaved=  13.
 NSaved=13 IEnMin=13 EnMin= -3341.29900429257     IErMin=13 ErrMin= 6.23D-06
 ErrMax= 6.23D-06  0.00D+00 EMaxC= 1.00D-01 BMatC= 1.02D-08 BMatP= 7.49D-08
 IDIUse=1 WtCom= 1.00D+00 WtEn= 0.00D+00
 Coeff-Com: -0.338D-03 0.421D-03-0.112D-04 0.155D-04 0.719D-03 0.145D-02
 Coeff-Com:  0.206D-02-0.398D-02-0.363D-01-0.502D-01-0.440D-01 0.329D+00
 Coeff-Com:  0.801D+00
 Coeff:     -0.338D-03 0.421D-03-0.112D-04 0.155D-04 0.719D-03 0.145D-02
 Coeff:      0.206D-02-0.398D-02-0.363D-01-0.502D-01-0.440D-01 0.329D+00
 Coeff:      0.801D+00
 Gap=     0.156 Goal=   None    Shift=    0.000
 RMSDP=4.21D-07 MaxDP=3.71D-05 DE=-5.29D-08 OVMax= 6.56D-05

 Cycle  14  Pass 1  IDiag  1:
 RMSU=  1.73D-07    CP:  9.50D-01  1.94D+00  1.57D-01  4.40D-01  9.54D-01
                    CP:  7.22D-01  8.38D-01  8.95D-01  1.10D+00  7.99D-01
                    CP:  1.00D+00  1.37D+00  1.23D+00
 E= -3341.29900430508     Delta-E=       -0.000000012511 Rises=F Damp=F
 DIIS: error= 1.37D-06 at cycle  14 NSaved=  14.
 NSaved=14 IEnMin=14 EnMin= -3341.29900430508     IErMin=14 ErrMin= 1.37D-06
 ErrMax= 1.37D-06  0.00D+00 EMaxC= 1.00D-01 BMatC= 5.66D-10 BMatP= 1.02D-08
 IDIUse=1 WtCom= 1.00D+00 WtEn= 0.00D+00
 Coeff-Com: -0.880D-04 0.100D-03 0.929D-05-0.169D-04 0.184D-03 0.653D-03
 Coeff-Com:  0.181D-02-0.242D-03-0.165D-01-0.296D-01-0.640D-01 0.578D-02
 Coeff-Com:  0.381D+00 0.721D+00
 Coeff:     -0.880D-04 0.100D-03 0.929D-05-0.169D-04 0.184D-03 0.653D-03
 Coeff:      0.181D-02-0.242D-03-0.165D-01-0.296D-01-0.640D-01 0.578D-02
 Coeff:      0.381D+00 0.721D+00
 Gap=     0.156 Goal=   None    Shift=    0.000
 RMSDP=1.79D-07 MaxDP=1.83D-05 DE=-1.25D-08 OVMax= 3.64D-05

 Cycle  15  Pass 1  IDiag  1:
 RMSU=  8.72D-08    CP:  9.50D-01  1.94D+00  1.57D-01  4.40D-01  9.54D-01
                    CP:  7.22D-01  8.38D-01  8.95D-01  1.10D+00  8.00D-01
                    CP:  1.03D+00  1.52D+00  1.51D+00  1.09D+00
 E= -3341.29900430726     Delta-E=       -0.000000002176 Rises=F Damp=F
 DIIS: error= 1.22D-06 at cycle  15 NSaved=  15.
 NSaved=15 IEnMin=15 EnMin= -3341.29900430726     IErMin=15 ErrMin= 1.22D-06
 ErrMax= 1.22D-06  0.00D+00 EMaxC= 1.00D-01 BMatC= 4.66D-10 BMatP= 5.66D-10
 IDIUse=1 WtCom= 1.00D+00 WtEn= 0.00D+00
 Coeff-Com:  0.276D-04-0.408D-04 0.105D-04-0.169D-04-0.619D-04 0.426D-04
 Coeff-Com:  0.552D-03 0.688D-03-0.125D-02-0.541D-02-0.245D-01-0.686D-01
 Coeff-Com:  0.248D-01 0.405D+00 0.668D+00
 Coeff:      0.276D-04-0.408D-04 0.105D-04-0.169D-04-0.619D-04 0.426D-04
 Coeff:      0.552D-03 0.688D-03-0.125D-02-0.541D-02-0.245D-01-0.686D-01
 Coeff:      0.248D-01 0.405D+00 0.668D+00
 Gap=     0.156 Goal=   None    Shift=    0.000
 RMSDP=1.04D-07 MaxDP=1.01D-05 DE=-2.18D-09 OVMax= 2.17D-05

 Cycle  16  Pass 1  IDiag  1:
 RMSU=  4.07D-08    CP:  9.50D-01  1.94D+00  1.57D-01  4.40D-01  9.54D-01
                    CP:  7.22D-01  8.38D-01  8.95D-01  1.10D+00  8.01D-01
                    CP:  1.05D+00  1.59D+00  1.69D+00  1.35D+00  1.03D+00
 E= -3341.29900430820     Delta-E=       -0.000000000942 Rises=F Damp=F
 DIIS: error= 9.90D-07 at cycle  16 NSaved=  16.
 NSaved=16 IEnMin=16 EnMin= -3341.29900430820     IErMin=16 ErrMin= 9.90D-07
 ErrMax= 9.90D-07  0.00D+00 EMaxC= 1.00D-01 BMatC= 2.26D-10 BMatP= 4.66D-10
 IDIUse=1 WtCom= 1.00D+00 WtEn= 0.00D+00
 Coeff-Com:  0.413D-04-0.519D-04 0.451D-05-0.598D-05-0.870D-04-0.231D-03
 Coeff-Com: -0.473D-03 0.303D-03 0.559D-02 0.943D-02 0.171D-01-0.294D-01
 Coeff-Com: -0.159D+00-0.143D+00 0.310D+00 0.990D+00
 Coeff:      0.413D-04-0.519D-04 0.451D-05-0.598D-05-0.870D-04-0.231D-03
 Coeff:     -0.473D-03 0.303D-03 0.559D-02 0.943D-02 0.171D-01-0.294D-01
 Coeff:     -0.159D+00-0.143D+00 0.310D+00 0.990D+00
 Gap=     0.156 Goal=   None    Shift=    0.000
 RMSDP=1.00D-07 MaxDP=1.03D-05 DE=-9.42D-10 OVMax= 2.22D-05

 Cycle  17  Pass 1  IDiag  1:
 RMSU=  2.11D-08    CP:  9.50D-01  1.94D+00  1.57D-01  4.40D-01  9.54D-01
                    CP:  7.22D-01  8.38D-01  8.95D-01  1.10D+00  8.03D-01
                    CP:  1.06D+00  1.66D+00  1.84D+00  1.57D+00  1.37D+00
                    CP:  1.08D+00
 E= -3341.29900430868     Delta-E=       -0.000000000484 Rises=F Damp=F
 DIIS: error= 1.83D-07 at cycle  17 NSaved=  17.
 NSaved=17 IEnMin=17 EnMin= -3341.29900430868     IErMin=17 ErrMin= 1.83D-07
 ErrMax= 1.83D-07  0.00D+00 EMaxC= 1.00D-01 BMatC= 1.86D-11 BMatP= 2.26D-10
 IDIUse=1 WtCom= 1.00D+00 WtEn= 0.00D+00
 Coeff-Com:  0.860D-05-0.100D-04 0.915D-06-0.947D-06-0.166D-04-0.953D-04
 Coeff-Com: -0.266D-03-0.310D-04 0.208D-02 0.446D-02 0.113D-01 0.395D-03
 Coeff-Com: -0.754D-01-0.149D+00-0.240D-02 0.468D+00 0.741D+00
 Coeff:      0.860D-05-0.100D-04 0.915D-06-0.947D-06-0.166D-04-0.953D-04
 Coeff:     -0.266D-03-0.310D-04 0.208D-02 0.446D-02 0.113D-01 0.395D-03
 Coeff:     -0.754D-01-0.149D+00-0.240D-02 0.468D+00 0.741D+00
 Gap=     0.156 Goal=   None    Shift=    0.000
 RMSDP=3.70D-08 MaxDP=3.65D-06 DE=-4.84D-10 OVMax= 7.92D-06

 Cycle  18  Pass 1  IDiag  1:
 RMSU=  1.04D-08    CP:  9.50D-01  1.94D+00  1.57D-01  4.40D-01  9.54D-01
                    CP:  7.22D-01  8.38D-01  8.95D-01  1.10D+00  8.03D-01
                    CP:  1.07D+00  1.69D+00  1.90D+00  1.65D+00  1.48D+00
                    CP:  1.28D+00  8.08D-01
 E= -3341.29900430879     Delta-E=       -0.000000000111 Rises=F Damp=F
 DIIS: error= 5.06D-08 at cycle  18 NSaved=  18.
 NSaved=18 IEnMin=18 EnMin= -3341.29900430879     IErMin=18 ErrMin= 5.06D-08
 ErrMax= 5.06D-08  0.00D+00 EMaxC= 1.00D-01 BMatC= 2.75D-12 BMatP= 1.86D-11
 IDIUse=1 WtCom= 1.00D+00 WtEn= 0.00D+00
 Coeff-Com: -0.585D-06 0.120D-05 0.119D-06-0.840D-07 0.212D-05-0.237D-04
 Coeff-Com: -0.804D-04-0.505D-04 0.370D-03 0.116D-02 0.379D-02 0.289D-02
 Coeff-Com: -0.224D-01-0.639D-01-0.378D-01 0.142D+00 0.424D+00 0.550D+00
 Coeff:     -0.585D-06 0.120D-05 0.119D-06-0.840D-07 0.212D-05-0.237D-04
 Coeff:     -0.804D-04-0.505D-04 0.370D-03 0.116D-02 0.379D-02 0.289D-02
 Coeff:     -0.224D-01-0.639D-01-0.378D-01 0.142D+00 0.424D+00 0.550D+00
 Gap=     0.156 Goal=   None    Shift=    0.000
 RMSDP=8.34D-09 MaxDP=6.99D-07 DE=-1.11D-10 OVMax= 1.45D-06

 SCF Done:  E(RPBE1PBE) =  -3341.29900431     A.U. after   18 cycles
            NFock= 18  Conv=0.83D-08     -V/T= 2.0056
 KE= 3.322702648057D+03 PE=-1.960705203894D+04 EE= 7.069044365640D+03
 Leave Link  502 at Sat Aug 12 03:58:33 2023, MaxMem=  4026531840 cpu:            4688.9 elap:             148.5
 (Enter /sw/arch/Centos8/EB_production/2021/software/Gaussian/g16.c01/l508.exe)
 QCSCF skips out because SCF is already converged.
 Leave Link  508 at Sat Aug 12 03:58:33 2023, MaxMem=  4026531840 cpu:               0.3 elap:               0.0
 (Enter /sw/arch/Centos8/EB_production/2021/software/Gaussian/g16.c01/l801.exe)
 DoSCS=F DFT=T ScalE2(SS,OS)=  1.000000  1.000000
 Range of M.O.s used for correlation:     1   652
 NBasis=   652 NAE=   158 NBE=   158 NFC=     0 NFV=     0
 NROrb=    652 NOA=   158 NOB=   158 NVA=   494 NVB=   494

 **** Warning!!: The largest alpha MO coefficient is  0.14595715D+02

 Leave Link  801 at Sat Aug 12 03:58:33 2023, MaxMem=  4026531840 cpu:               0.5 elap:               0.0
 (Enter /sw/arch/Centos8/EB_production/2021/software/Gaussian/g16.c01/l1002.exe)
 Minotr:  Closed shell wavefunction.
          Direct CPHF calculation.
          Differentiating once with respect to magnetic field using GIAOs.
          Electric field/nuclear overlap derivatives assumed to be zero.
          Requested convergence is 1.0D-08 RMS, and 1.0D-07 maximum.
          Secondary convergence is 1.0D-12 RMS, and 1.0D-12 maximum.
          NewPWx=T KeepS1=F KeepF1=F KeepIn=T MapXYZ=F SortEE=F KeepMc=T.
        25540 words used for storage of precomputed grid.
 Two-electron integral symmetry not used.
          MDV=    4026531840 using IRadAn=       1.
          Solving linear equations simultaneously, MaxMat=      96.
 FoFCou: FMM=F IPFlag=           0 FMFlag=      100000 FMFlg1=        2001
         NFxFlg=           0 DoJE=F BraDBF=F KetDBF=T FulRan=T
         wScrn=  0.000000 ICntrl=      6100 IOpCl=  0 I1Cent=           7 NGrid=          83
         NMat0=    1 NMatS0=      1 NMatT0=    0 NMatD0=    1 NMtDS0=    0 NMtDT0=    0
 Symmetry not used in FoFCou.
   1 Symmetry operations used in ECPInt.
 ECPInt:  NShTT=   54615 NPrTT=  226814 LenC2=   54616 LenP2D=  226814.
 LDataN:  DoStor=T MaxTD1= 5 Len=  102
 FoFJK:  IHMeth= 1 ICntrl=    6127 DoSepK=F KAlg= 0 I1Cent=           0 FoldK=F
 IRaf=         1 NMat=       1 IRICut=       1 DoRegI=T DoRafI=F ISym2E= 0 IDoP0=0 IntGTp=1.
          There are     3 degrees of freedom in the 1st order CPHF.  IDoFFX=0 NUNeed=     3.
      3 vectors produced by pass  0 Test12= 2.60D-12 3.33D-08 XBig12= 1.52D+02 2.14D+00.
 AX will form     3 AO Fock derivatives at one time.
      3 vectors produced by pass  1 Test12= 2.60D-12 3.33D-08 XBig12= 1.36D+00 6.09D-01.
      3 vectors produced by pass  2 Test12= 2.60D-12 3.33D-08 XBig12= 7.45D-02 7.15D-02.
      3 vectors produced by pass  3 Test12= 2.60D-12 3.33D-08 XBig12= 7.13D-04 6.29D-03.
      3 vectors produced by pass  4 Test12= 2.60D-12 3.33D-08 XBig12= 2.87D-05 1.82D-03.
      3 vectors produced by pass  5 Test12= 2.60D-12 3.33D-08 XBig12= 3.87D-07 9.77D-05.
      3 vectors produced by pass  6 Test12= 2.60D-12 3.33D-08 XBig12= 1.77D-09 1.20D-05.
      3 vectors produced by pass  7 Test12= 2.60D-12 3.33D-08 XBig12= 3.72D-11 2.74D-06.
      3 vectors produced by pass  8 Test12= 2.60D-12 3.33D-08 XBig12= 1.35D-12 2.75D-07.
 InvSVY:  IOpt=1 It=  1 EMax= 5.33D-15
 Solved reduced A of dimension    27 with     3 vectors.
 Calculating GIAO nuclear magnetic shielding tensors.
 SCF GIAO Magnetic shielding tensor (ppm):
      1  C    Isotropic =   123.8713   Anisotropy =    84.6449
   XX=   123.8900   YX=   -30.3803   ZX=    35.2246
   XY=   -21.2414   YY=    87.5530   ZY=     9.3994
   XZ=    28.5262   YZ=    -6.4217   ZZ=   160.1710
   Eigenvalues:    70.8662   120.4466   180.3012
      2  C    Isotropic =   126.5377   Anisotropy =    79.8230
   XX=    85.6236   YX=    12.8348   ZX=    43.1286
   XY=    11.9719   YY=   128.4246   ZY=     5.6228
   XZ=    23.1757   YZ=     7.9858   ZZ=   165.5650
   Eigenvalues:    72.0799   127.7802   179.7531
      3  C    Isotropic =   124.8943   Anisotropy =    81.2733
   XX=   135.8902   YX=    29.8823   ZX=    18.5361
   XY=    20.0707   YY=    86.9285   ZY=    21.3148
   XZ=    17.3333   YZ=    36.3174   ZZ=   151.8643
   Eigenvalues:    70.9907   124.6158   179.0766
      4  C    Isotropic =   117.6237   Anisotropy =    94.3586
   XX=   131.7316   YX=     8.8387   ZX=    41.9943
   XY=     4.8421   YY=   103.0755   ZY=    15.4190
   XZ=    60.0069   YZ=    23.2312   ZZ=   118.0641
   Eigenvalues:    70.0803   102.2615   180.5295
      5  C    Isotropic =   123.6335   Anisotropy =    82.5522
   XX=   134.3212   YX=    11.2489   ZX=    35.7110
   XY=    20.5459   YY=    94.1252   ZY=   -15.4455
   XZ=    43.8463   YZ=   -26.0430   ZZ=   142.4541
   Eigenvalues:    70.3603   121.8720   178.6683
      6  H    Isotropic =    28.5817   Anisotropy =     4.4786
   XX=    29.9477   YX=     0.5224   ZX=    -0.8208
   XY=    -0.0096   YY=    31.0282   ZY=    -2.2056
   XZ=    -0.5672   YZ=    -1.1755   ZZ=    24.7692
   Eigenvalues:    24.2759    29.9018    31.5674
      7  H    Isotropic =    28.3899   Anisotropy =     6.8676
   XX=    31.8808   YX=    -1.6332   ZX=    -2.8152
   XY=    -0.8764   YY=    27.2293   ZY=     0.2655
   XZ=    -1.8600   YZ=     0.0262   ZZ=    26.0597
   Eigenvalues:    25.1947    27.0068    32.9683
      8  H    Isotropic =    28.0591   Anisotropy =     4.8874
   XX=    28.0678   YX=    -1.4209   ZX=     0.3492
   XY=    -0.6851   YY=    30.6977   ZY=    -0.4596
   XZ=     0.4887   YZ=    -1.8215   ZZ=    25.4117
   Eigenvalues:    25.1617    27.6983    31.3173
      9  H    Isotropic =    28.9462   Anisotropy =     3.2063
   XX=    28.9295   YX=     0.7595   ZX=    -0.7980
   XY=     0.8288   YY=    29.4708   ZY=    -0.5712
   XZ=    -2.0055   YZ=    -1.4207   ZZ=    28.4383
   Eigenvalues:    27.2236    28.5313    31.0837
     10  H    Isotropic =    28.1334   Anisotropy =     5.4037
   XX=    27.1334   YX=    -2.0437   ZX=     1.1311
   XY=    -2.8917   YY=    30.2063   ZY=    -1.4032
   XZ=    -0.2238   YZ=    -0.0656   ZZ=    27.0605
   Eigenvalues:    25.7616    26.9028    31.7359
     11  Fe   Isotropic = -5007.8738   Anisotropy =  9009.6794
   XX= -5235.1584   YX=   911.2609   ZX=  3978.7069
   XY=   938.5259   YY= -7889.9252   ZY=  1211.2075
   XZ=  3962.6686   YZ=  1199.2737   ZZ= -1898.5379
   Eigenvalues: -8182.0110 -7840.1896   998.5791
     12  C    Isotropic =   123.3993   Anisotropy =    76.4953
   XX=   141.3487   YX=     3.3994   ZX=    22.5445
   XY=    11.7441   YY=    71.3189   ZY=    -1.8530
   XZ=    24.1670   YZ=   -20.9246   ZZ=   157.5302
   Eigenvalues:    68.2066   127.5951   174.3961
     13  C    Isotropic =   105.0534   Anisotropy =    79.9666
   XX=    81.0504   YX=   -10.0301   ZX=    37.2908
   XY=   -12.4707   YY=    85.7970   ZY=    18.3721
   XZ=    16.0471   YZ=     4.9417   ZZ=   148.3127
   Eigenvalues:    62.5456    94.2500   158.3645
     14  C    Isotropic =   120.5979   Anisotropy =    83.7852
   XX=    93.6964   YX=    29.4382   ZX=    20.0796
   XY=    20.0607   YY=   116.6599   ZY=    25.7883
   XZ=    10.5559   YZ=    33.2318   ZZ=   151.4375
   Eigenvalues:    77.7308   107.6083   176.4547
     15  C    Isotropic =   110.0887   Anisotropy =    86.2885
   XX=   123.9349   YX=     5.4225   ZX=    28.2220
   XY=     2.1627   YY=    92.3568   ZY=    36.7139
   XZ=    33.0914   YZ=    56.0836   ZZ=   113.9745
   Eigenvalues:    51.5639   111.0879   167.6144
     16  C    Isotropic =   123.9239   Anisotropy =    83.4646
   XX=   125.8946   YX=    11.1660   ZX=    43.9803
   XY=    16.3296   YY=   126.1710   ZY=    -1.2739
   XZ=    64.5949   YZ=     4.8907   ZZ=   119.7062
   Eigenvalues:    67.2811   124.9237   179.5670
     17  H    Isotropic =    27.8853   Anisotropy =     3.7595
   XX=    29.0839   YX=    -0.7411   ZX=    -1.7928
   XY=    -1.4842   YY=    28.9909   ZY=    -1.5473
   XZ=    -2.6132   YZ=    -0.7875   ZZ=    25.5813
   Eigenvalues:    24.0387    29.2257    30.3917
     18  H    Isotropic =    28.6290   Anisotropy =     3.6687
   XX=    29.3518   YX=    -0.9222   ZX=    -1.4798
   XY=    -0.1787   YY=    30.3939   ZY=     0.9986
   XZ=    -2.9808   YZ=    -0.3903   ZZ=    26.1414
   Eigenvalues:    24.9987    29.8136    31.0748
     19  H    Isotropic =    28.2334   Anisotropy =     7.4121
   XX=    31.1575   YX=    -1.3744   ZX=    -2.8944
   XY=    -1.0342   YY=    26.7050   ZY=    -0.2297
   XZ=    -3.8393   YZ=     0.2733   ZZ=    26.8377
   Eigenvalues:    24.8190    26.7065    33.1748
     20  C    Isotropic =   161.7916   Anisotropy =    13.9863
   XX=   169.4747   YX=     8.6487   ZX=    -2.0375
   XY=    -0.4912   YY=   150.6781   ZY=    -4.1981
   XZ=     0.3427   YZ=    -6.5838   ZZ=   165.2221
   Eigenvalues:   148.2771   165.9819   171.1159
     21  H    Isotropic =    27.6133   Anisotropy =     6.0770
   XX=    26.2118   YX=     3.4829   ZX=    -0.0009
   XY=     2.3584   YY=    26.2167   ZY=     1.1191
   XZ=     1.1639   YZ=     2.5597   ZZ=    30.4113
   Eigenvalues:    23.1765    27.9987    31.6646
     22  P    Isotropic =   432.4994   Anisotropy =    61.3888
   XX=   441.9896   YX=   -33.0883   ZX=    33.7651
   XY=    -8.3935   YY=   401.5206   ZY=    -4.4394
   XZ=    13.0786   YZ=    13.8384   ZZ=   453.9879
   Eigenvalues:   389.6666   434.4063   473.4253
     23  C    Isotropic =   175.3792   Anisotropy =     7.5697
   XX=   175.0365   YX=    -3.2007   ZX=    -1.4335
   XY=     4.0582   YY=   180.2141   ZY=     2.5219
   XZ=     0.9394   YZ=     0.1183   ZZ=   170.8870
   Eigenvalues:   170.6825   175.0294   180.4257
     24  H    Isotropic =    30.0963   Anisotropy =    10.0180
   XX=    33.8579   YX=     2.2584   ZX=    -3.8200
   XY=    -2.0843   YY=    28.5373   ZY=    -5.0487
   XZ=    -4.4443   YZ=    -4.6914   ZZ=    27.8935
   Eigenvalues:    22.5069    31.0069    36.7749
     25  H    Isotropic =    30.1500   Anisotropy =     8.1152
   XX=    33.8297   YX=     0.1268   ZX=     2.2676
   XY=    -2.6844   YY=    29.5496   ZY=    -2.4648
   XZ=     3.1832   YZ=    -2.7288   ZZ=    27.0707
   Eigenvalues:    25.0900    29.7998    35.5602
     26  H    Isotropic =    30.5489   Anisotropy =     7.4528
   XX=    28.2418   YX=     0.6245   ZX=    -1.2150
   XY=    -3.2863   YY=    32.8946   ZY=     3.2241
   XZ=     0.7325   YZ=     3.5854   ZZ=    30.5102
   Eigenvalues:    27.4986    28.6306    35.5174
     27  P    Isotropic =   409.1532   Anisotropy =    63.5689
   XX=   387.5713   YX=   -17.0792   ZX=    14.2642
   XY=    -6.8177   YY=   405.0827   ZY=   -43.1244
   XZ=    -0.8787   YZ=    -7.6164   ZZ=   434.8056
   Eigenvalues:   380.5873   395.3398   451.5325
     28  C    Isotropic =    60.4489   Anisotropy =   189.6189
   XX=    52.2785   YX=    67.6534   ZX=   -30.2185
   XY=    57.2287   YY=   142.9691   ZY=   -45.0077
   XZ=   -24.6474   YZ=   -37.4696   ZZ=   -13.9010
   Eigenvalues:   -26.6132    21.0983   186.8614
     29  C    Isotropic =    57.0027   Anisotropy =   182.2444
   XX=    43.0036   YX=    83.1303   ZX=    25.7644
   XY=   101.0803   YY=   105.6644   ZY=   -48.2657
   XZ=     5.4507   YZ=   -52.4073   ZZ=    22.3399
   Eigenvalues:   -49.2698    41.7788   178.4989
     30  C    Isotropic =    66.0031   Anisotropy =   180.3313
   XX=    19.9880   YX=    79.6576   ZX=   -41.9960
   XY=    82.4787   YY=   135.9111   ZY=   -17.4202
   XZ=   -43.4734   YZ=   -16.6592   ZZ=    42.1101
   Eigenvalues:   -34.5618    46.3470   186.2239
     31  C    Isotropic =    66.6975   Anisotropy =   180.3514
   XX=    70.4282   YX=    54.3317   ZX=   -31.0546
   XY=    50.9559   YY=   147.5578   ZY=   -43.8176
   XZ=   -26.5868   YZ=   -41.1555   ZZ=   -17.8935
   Eigenvalues:   -31.0875    44.2482   186.9318
     32  C    Isotropic =    65.9349   Anisotropy =   178.9795
   XX=    42.5545   YX=    81.2209   ZX=    16.1251
   XY=    87.7935   YY=   124.5608   ZY=   -49.2212
   XZ=    15.3689   YZ=   -50.1113   ZZ=    30.6894
   Eigenvalues:   -36.0477    48.5979   185.2546
     33  C    Isotropic =    60.2918   Anisotropy =   181.1710
   XX=    13.6250   YX=    76.9280   ZX=   -41.0020
   XY=    92.4513   YY=   129.5036   ZY=   -13.1518
   XZ=   -39.1669   YZ=   -14.6592   ZZ=    37.7469
   Eigenvalues:   -42.1658    41.9688   181.0725
     34  H    Isotropic =    24.5725   Anisotropy =     4.2210
   XX=    24.7583   YX=     0.3031   ZX=     0.8624
   XY=     0.5454   YY=    22.7360   ZY=     1.7666
   XZ=     1.0692   YZ=     1.7709   ZZ=    26.2231
   Eigenvalues:    21.9958    24.3352    27.3865
     35  H    Isotropic =    24.9211   Anisotropy =     2.6170
   XX=    25.7216   YX=    -1.4147   ZX=     0.9511
   XY=    -1.4720   YY=    23.9440   ZY=     1.7351
   XZ=     1.4824   YZ=     1.9782   ZZ=    25.0977
   Eigenvalues:    21.6948    26.4028    26.6657
     36  H    Isotropic =    25.0386   Anisotropy =     6.6061
   XX=    24.2630   YX=    -0.6794   ZX=     2.5000
   XY=    -0.6933   YY=    23.1950   ZY=     1.7001
   XZ=     2.7588   YZ=     2.3257   ZZ=    27.6579
   Eigenvalues:    21.3133    24.3599    29.4427
     37  H    Isotropic =    24.6480   Anisotropy =    11.1725
   XX=    22.6547   YX=     1.4833   ZX=     1.5961
   XY=    -0.5053   YY=    22.7125   ZY=     4.6763
   XZ=     2.3292   YZ=     5.9129   ZZ=    28.5768
   Eigenvalues:    19.4771    22.3706    32.0963
     38  C    Isotropic =    52.3029   Anisotropy =   191.0223
   XX=    74.4257   YX=   -94.8439   ZX=   -18.1962
   XY=   -97.1196   YY=    82.8549   ZY=    26.3313
   XZ=   -10.4464   YZ=    28.6966   ZZ=    -0.3719
   Eigenvalues:   -21.8673    -0.8752   179.6511
     39  C    Isotropic =    66.3790   Anisotropy =   171.2548
   XX=    75.5695   YX=   -94.7851   ZX=   -36.4005
   XY=   -90.6912   YY=    89.0514   ZY=    -2.2042
   XZ=   -53.6835   YZ=    -7.7190   ZZ=    34.5162
   Eigenvalues:   -31.7493    50.3374   180.5489
     40  C    Isotropic =    67.1186   Anisotropy =   173.2480
   XX=   112.2082   YX=   -60.8917   ZX=   -33.7788
   XY=   -60.3068   YY=   113.8043   ZY=    28.2209
   XZ=   -34.0669   YZ=    26.1741   ZZ=   -24.6566
   Eigenvalues:   -33.9370    52.6756   182.6173
     41  C    Isotropic =    70.3191   Anisotropy =   170.1172
   XX=    94.2266   YX=   -89.5338   ZX=     0.7249
   XY=   -91.7191   YY=    79.6629   ZY=    44.8722
   XZ=     4.0557   YZ=    44.9114   ZZ=    37.0677
   Eigenvalues:   -24.7245    51.9512   183.7305
     42  C    Isotropic =    66.3552   Anisotropy =   174.0636
   XX=    77.3163   YX=   -95.3766   ZX=   -41.3470
   XY=   -98.2263   YY=    85.2545   ZY=   -10.3958
   XZ=   -43.7338   YZ=    -3.9353   ZZ=    36.4947
   Eigenvalues:   -34.2884    50.9563   182.3976
     43  C    Isotropic =    66.6035   Anisotropy =   174.1897
   XX=   110.3524   YX=   -63.6621   ZX=   -28.4696
   XY=   -63.8001   YY=   117.2329   ZY=     8.5987
   XZ=   -32.6321   YZ=    23.7037   ZZ=   -27.7747
   Eigenvalues:   -34.2863    51.3669   182.7300
     44  H    Isotropic =    24.7390   Anisotropy =     6.1658
   XX=    24.6773   YX=     3.5492   ZX=    -0.8287
   XY=     3.6103   YY=    24.5468   ZY=    -1.5771
   XZ=    -0.7209   YZ=    -1.3696   ZZ=    24.9928
   Eigenvalues:    20.9615    24.4059    28.8495
     45  H    Isotropic =    25.1144   Anisotropy =     3.2613
   XX=    24.4966   YX=     2.6686   ZX=     0.7713
   XY=     2.6880   YY=    23.9716   ZY=    -0.7985
   XZ=     1.0544   YZ=    -0.3660   ZZ=    26.8749
   Eigenvalues:    21.3452    26.7094    27.2885
     46  H    Isotropic =    25.0768   Anisotropy =     6.7217
   XX=    24.3062   YX=     3.1294   ZX=    -0.8890
   XY=     3.1526   YY=    24.2835   ZY=    -3.0134
   XZ=    -0.6110   YZ=    -2.2677   ZZ=    26.6407
   Eigenvalues:    20.7929    24.8795    29.5579
     47  H    Isotropic =    25.3467   Anisotropy =    14.7881
   XX=    26.5281   YX=     6.5567   ZX=    -3.1220
   XY=     7.7210   YY=    25.5951   ZY=    -6.2083
   XZ=    -1.1241   YZ=    -2.9864   ZZ=    23.9169
   Eigenvalues:    18.0804    22.7542    35.2054
     48  H    Isotropic =    24.7498   Anisotropy =    11.5869
   XX=    22.7779   YX=     2.7982   ZX=    -4.3498
   XY=     2.2115   YY=    22.3817   ZY=    -3.2365
   XZ=    -3.3484   YZ=    -3.1503   ZZ=    29.0899
   Eigenvalues:    20.0497    21.7253    32.4744
     49  H    Isotropic =    24.3486   Anisotropy =     7.9392
   XX=    24.9869   YX=     0.2157   ZX=     3.6853
   XY=    -0.2937   YY=    22.7614   ZY=    -2.9165
   XZ=     4.3602   YZ=    -1.9012   ZZ=    25.2976
   Eigenvalues:    20.0024    23.4021    29.6414
     50  C    Isotropic =   162.4930   Anisotropy =    18.4332
   XX=   158.3000   YX=    -7.6272   ZX=    -6.2557
   XY=    -9.8021   YY=   167.3281   ZY=    -7.5677
   XZ=     3.7418   YZ=    -5.8489   ZZ=   161.8508
   Eigenvalues:   150.8758   161.8214   174.7818
     51  C    Isotropic =   159.2147   Anisotropy =    17.0664
   XX=   161.2227   YX=     2.5693   ZX=     9.6313
   XY=    -4.1361   YY=   157.2681   ZY=    -5.5532
   XZ=     7.2341   YZ=    -7.3253   ZZ=   159.1533
   Eigenvalues:   149.0524   157.9994   170.5924
     52  C    Isotropic =   167.2605   Anisotropy =    10.1863
   XX=   167.3886   YX=    -1.4518   ZX=     9.2275
   XY=     7.4641   YY=   167.3145   ZY=     1.4535
   XZ=     3.6552   YZ=    -3.2602   ZZ=   167.0785
   Eigenvalues:   159.7683   167.9619   174.0514
     53  H    Isotropic =    30.6436   Anisotropy =     6.0189
   XX=    28.9936   YX=     3.0351   ZX=     3.3294
   XY=     3.5469   YY=    31.3042   ZY=     0.2058
   XZ=     3.1390   YZ=    -1.3631   ZZ=    31.6329
   Eigenvalues:    25.2287    32.0459    34.6561
     54  C    Isotropic =   164.7549   Anisotropy =     3.5665
   XX=   165.1202   YX=    -0.5429   ZX=     1.9958
   XY=     5.6957   YY=   163.3256   ZY=    -0.1292
   XZ=    -0.1533   YZ=    -0.8827   ZZ=   165.8189
   Eigenvalues:   161.2953   165.8369   167.1326
     55  H    Isotropic =    30.6926   Anisotropy =     4.7464
   XX=    32.1531   YX=     2.8673   ZX=     0.0090
   XY=     0.7828   YY=    31.2041   ZY=    -0.7313
   XZ=     0.3581   YZ=    -3.4407   ZZ=    28.7204
   Eigenvalues:    27.2805    30.9403    33.8568
     56  H    Isotropic =    30.5069   Anisotropy =     7.4604
   XX=    28.8645   YX=    -2.7283   ZX=     2.6818
   XY=    -2.8892   YY=    31.0656   ZY=     4.5428
   XZ=     2.9379   YZ=     3.7385   ZZ=    31.5907
   Eigenvalues:    23.9619    32.0783    35.4805
     57  C    Isotropic =   163.8934   Anisotropy =     7.8225
   XX=   161.0323   YX=     6.3629   ZX=     4.8603
   XY=     2.9781   YY=   165.9551   ZY=    -0.2245
   XZ=     2.0474   YZ=    -6.0761   ZZ=   164.6930
   Eigenvalues:   155.8263   166.7456   169.1084
     58  H    Isotropic =    32.1759   Anisotropy =    13.1587
   XX=    34.7936   YX=    -4.6197   ZX=     5.7649
   XY=    -1.4398   YY=    26.9407   ZY=     0.2623
   XZ=     5.0336   YZ=    -3.3740   ZZ=    34.7934
   Eigenvalues:    25.8950    29.6844    40.9484
     59  H    Isotropic =    34.0355   Anisotropy =    19.4029
   XX=    29.5647   YX=     7.3920   ZX=     2.5642
   XY=     9.1543   YY=    42.7252   ZY=    -1.5452
   XZ=     2.0243   YZ=    -5.2313   ZZ=    29.8167
   Eigenvalues:    23.5247    31.6111    46.9708
     60  C    Isotropic =   167.3579   Anisotropy =     7.9171
   XX=   164.7209   YX=     3.1712   ZX=    -4.9491
   XY=    -1.1376   YY=   169.6671   ZY=    -5.9801
   XZ=     1.9399   YZ=    -0.9102   ZZ=   167.6857
   Eigenvalues:   164.0332   165.4045   172.6360
     61  H    Isotropic =    30.5272   Anisotropy =    10.6905
   XX=    33.5432   YX=    -4.6983   ZX=     2.3762
   XY=    -5.3191   YY=    29.3775   ZY=    -0.7600
   XZ=     2.7628   YZ=    -0.9939   ZZ=    28.6608
   Eigenvalues:    25.8174    28.1100    37.6541
     62  H    Isotropic =    30.9381   Anisotropy =     8.8084
   XX=    26.9218   YX=     0.6132   ZX=     1.3295
   XY=     1.5637   YY=    35.5234   ZY=    -2.5357
   XZ=     1.0046   YZ=    -3.1462   ZZ=    30.3692
   Eigenvalues:    26.1326    29.8714    36.8104
     63  H    Isotropic =    31.1743   Anisotropy =     7.4650
   XX=    27.3436   YX=    -1.3220   ZX=    -1.1090
   XY=    -0.9716   YY=    31.4332   ZY=     1.8917
   XZ=    -0.7028   YZ=     2.7681   ZZ=    34.7462
   Eigenvalues:    27.0310    30.3409    36.1510
     64  H    Isotropic =    31.2645   Anisotropy =     8.5002
   XX=    31.8421   YX=     2.5294   ZX=    -1.9987
   XY=     2.3055   YY=    29.0212   ZY=    -2.7583
   XZ=    -2.5922   YZ=    -4.0173   ZZ=    32.9301
   Eigenvalues:    26.8261    30.0360    36.9313
     65  H    Isotropic =    31.0993   Anisotropy =     7.3400
   XX=    30.8801   YX=     4.6036   ZX=     1.6428
   XY=     2.1349   YY=    33.5597   ZY=    -1.3411
   XZ=     3.7639   YZ=    -0.0197   ZZ=    28.8582
   Eigenvalues:    26.0590    31.2463    35.9926
     66  H    Isotropic =    30.8406   Anisotropy =    11.7555
   XX=    27.3230   YX=    -1.3583   ZX=     2.7059
   XY=    -1.7785   YY=    28.1992   ZY=    -2.7236
   XZ=     3.2346   YZ=    -2.5371   ZZ=    36.9997
   Eigenvalues:    26.0391    27.8050    38.6776
     67  C    Isotropic =   153.9306   Anisotropy =    24.5385
   XX=   145.7151   YX=     2.8576   ZX=    10.2835
   XY=    -2.9260   YY=   153.2197   ZY=     5.4983
   XZ=    12.5788   YZ=     6.5513   ZZ=   162.8570
   Eigenvalues:   139.4188   152.0835   170.2896
     68  C    Isotropic =   161.0830   Anisotropy =     5.7167
   XX=   158.0076   YX=     0.6033   ZX=     0.3771
   XY=     1.2255   YY=   161.3918   ZY=     2.0868
   XZ=    -4.6921   YZ=     0.7187   ZZ=   163.8497
   Eigenvalues:   156.9039   161.4510   164.8941
     69  C    Isotropic =   163.4812   Anisotropy =     5.4746
   XX=   160.0799   YX=    -1.3656   ZX=    -1.9195
   XY=     0.3675   YY=   165.4087   ZY=     2.0941
   XZ=     1.5201   YZ=    -5.9492   ZZ=   164.9549
   Eigenvalues:   160.0004   163.3122   167.1309
     70  H    Isotropic =    29.8008   Anisotropy =     4.1712
   XX=    26.0551   YX=     1.0080   ZX=     1.0166
   XY=     0.9498   YY=    31.0139   ZY=    -0.6962
   XZ=     0.0004   YZ=    -0.5449   ZZ=    32.3335
   Eigenvalues:    25.8103    31.0106    32.5816
     71  C    Isotropic =   163.1687   Anisotropy =     4.7482
   XX=   158.9757   YX=     2.8887   ZX=     0.5381
   XY=     0.4357   YY=   165.8573   ZY=     3.1195
   XZ=     5.3246   YZ=    -3.9966   ZZ=   164.6731
   Eigenvalues:   157.3944   165.7776   166.3341
     72  H    Isotropic =    30.8389   Anisotropy =     6.2151
   XX=    27.3943   YX=    -0.7323   ZX=     4.4388
   XY=    -0.0489   YY=    32.6931   ZY=     1.7574
   XZ=     3.9308   YZ=     0.1652   ZZ=    32.4292
   Eigenvalues:    24.9424    32.5920    34.9823
     73  H    Isotropic =    30.1201   Anisotropy =     6.2270
   XX=    34.1922   YX=     0.2088   ZX=    -0.9276
   XY=     0.2711   YY=    30.0702   ZY=     3.7225
   XZ=    -0.6599   YZ=     2.8535   ZZ=    26.0980
   Eigenvalues:    24.1774    31.9115    34.2715
     74  C    Isotropic =   163.7004   Anisotropy =     5.7852
   XX=   158.8781   YX=     0.2648   ZX=     2.9376
   XY=     2.4852   YY=   167.3211   ZY=     1.0873
   XZ=    -5.1108   YZ=    -0.3143   ZZ=   164.9019
   Eigenvalues:   158.4602   165.0838   167.5572
     75  H    Isotropic =    28.0932   Anisotropy =    11.4917
   XX=    28.7622   YX=    -4.3720   ZX=     2.1716
   XY=    -3.5166   YY=    33.4901   ZY=     0.6838
   XZ=     2.4276   YZ=     0.4840   ZZ=    22.0272
   Eigenvalues:    21.0452    27.4800    35.7543
     76  H    Isotropic =    30.5870   Anisotropy =     3.1436
   XX=    28.7757   YX=     1.7707   ZX=    -1.3768
   XY=     2.4149   YY=    30.7544   ZY=     1.6433
   XZ=    -1.1216   YZ=     0.1068   ZZ=    32.2308
   Eigenvalues:    27.0059    32.0723    32.6828
     77  C    Isotropic =   165.0677   Anisotropy =     5.1606
   XX=   164.1798   YX=     0.3563   ZX=    -0.6586
   XY=    -1.1178   YY=   162.7073   ZY=    -3.1322
   XZ=     1.8757   YZ=     4.8070   ZZ=   168.3160
   Eigenvalues:   162.4559   164.2391   168.5081
     78  H    Isotropic =    30.1166   Anisotropy =    10.7253
   XX=    30.6832   YX=    -4.1274   ZX=     0.0655
   XY=    -4.2278   YY=    34.4412   ZY=     1.5936
   XZ=     0.1748   YZ=     1.4600   ZZ=    25.2255
   Eigenvalues:    24.8307    28.2523    37.2669
     79  H    Isotropic =    30.4874   Anisotropy =     8.1689
   XX=    28.0051   YX=     0.2186   ZX=    -2.7626
   XY=    -0.1088   YY=    29.2636   ZY=     2.9878
   XZ=    -2.3557   YZ=     1.9849   ZZ=    34.1934
   Eigenvalues:    26.6744    28.8544    35.9333
     80  H    Isotropic =    30.0680   Anisotropy =     9.5757
   XX=    35.2740   YX=     2.5742   ZX=    -1.0560
   XY=     2.6383   YY=    30.3782   ZY=     0.3821
   XZ=    -1.0770   YZ=     0.6737   ZZ=    24.5520
   Eigenvalues:    24.3352    29.4171    36.4518
     81  H    Isotropic =    30.5133   Anisotropy =     5.9097
   XX=    28.2659   YX=    -0.5435   ZX=     4.3909
   XY=    -0.6244   YY=    31.1513   ZY=     0.1654
   XZ=     3.2021   YZ=     0.4466   ZZ=    32.1227
   Eigenvalues:    25.8544    31.2324    34.4531
     82  H    Isotropic =    30.5948   Anisotropy =     8.4080
   XX=    28.1093   YX=     1.1860   ZX=    -1.1666
   XY=     1.1776   YY=    33.1922   ZY=    -4.2821
   XZ=    -0.7618   YZ=    -3.4072   ZZ=    30.4830
   Eigenvalues:    27.6852    27.8991    36.2001
     83  H    Isotropic =    30.2514   Anisotropy =    11.3936
   XX=    28.6036   YX=     2.6556   ZX=     1.4273
   XY=     2.5588   YY=    34.9942   ZY=     4.2422
   XZ=     1.3891   YZ=     4.3834   ZZ=    27.1565
   Eigenvalues:    25.2274    27.6797    37.8471
 End of Minotr F.D. properties file   721 does not exist.
 End of Minotr F.D. properties file   722 does not exist.
 End of Minotr F.D. properties file   788 does not exist.
 Leave Link 1002 at Sat Aug 12 04:00:44 2023, MaxMem=  4026531840 cpu:            3776.1 elap:             130.4
 (Enter /sw/arch/Centos8/EB_production/2021/software/Gaussian/g16.c01/l601.exe)
 Copying SCF densities to generalized density rwf, IOpCl= 0 IROHF=0.

 **********************************************************************

            Population analysis using the SCF Density.

 **********************************************************************

 Alpha  occ. eigenvalues -- -256.35431 -77.18402 -77.17126 -30.12900 -25.97745
 Alpha  occ. eigenvalues --  -25.95877 -25.95831 -10.25778 -10.25235 -10.24592
 Alpha  occ. eigenvalues --  -10.24523 -10.24434 -10.24405 -10.24375 -10.24337
 Alpha  occ. eigenvalues --  -10.24329 -10.24287 -10.24243 -10.24131 -10.24101
 Alpha  occ. eigenvalues --  -10.24069 -10.24047 -10.24046 -10.24023 -10.23963
 Alpha  occ. eigenvalues --  -10.23428 -10.23298 -10.23119 -10.23101 -10.22917
 Alpha  occ. eigenvalues --  -10.22892 -10.22561 -10.22303 -10.22241 -10.22103
 Alpha  occ. eigenvalues --  -10.22099 -10.22021 -10.21652 -10.21440 -10.21401
 Alpha  occ. eigenvalues --  -10.21224 -10.21165 -10.20688  -6.59467  -6.58114
 Alpha  occ. eigenvalues --   -4.73528  -4.73501  -4.72963  -4.72192  -4.72119
 Alpha  occ. eigenvalues --   -4.71626  -3.46028  -2.24996  -2.20290  -2.20208
 Alpha  occ. eigenvalues --   -0.92283  -0.90481  -0.87996  -0.86942  -0.85309
 Alpha  occ. eigenvalues --   -0.84192  -0.81585  -0.77545  -0.77214  -0.76521
 Alpha  occ. eigenvalues --   -0.75840  -0.75529  -0.75492  -0.74740  -0.74490
 Alpha  occ. eigenvalues --   -0.73283  -0.73273  -0.73103  -0.71816  -0.66956
 Alpha  occ. eigenvalues --   -0.64781  -0.62992  -0.62154  -0.61890  -0.61514
 Alpha  occ. eigenvalues --   -0.60917  -0.60781  -0.60734  -0.58070  -0.57101
 Alpha  occ. eigenvalues --   -0.56799  -0.56310  -0.56004  -0.55671  -0.55337
 Alpha  occ. eigenvalues --   -0.54937  -0.53880  -0.52110  -0.50623  -0.50587
 Alpha  occ. eigenvalues --   -0.48954  -0.47780  -0.47240  -0.46795  -0.46383
 Alpha  occ. eigenvalues --   -0.45868  -0.45394  -0.45238  -0.44995  -0.44778
 Alpha  occ. eigenvalues --   -0.44249  -0.43999  -0.43734  -0.43441  -0.43120
 Alpha  occ. eigenvalues --   -0.42797  -0.42726  -0.42575  -0.42261  -0.42089
 Alpha  occ. eigenvalues --   -0.41579  -0.40539  -0.39977  -0.39802  -0.39573
 Alpha  occ. eigenvalues --   -0.39454  -0.39134  -0.38584  -0.38360  -0.38296
 Alpha  occ. eigenvalues --   -0.38234  -0.37863  -0.37446  -0.37031  -0.36958
 Alpha  occ. eigenvalues --   -0.36322  -0.35907  -0.35393  -0.35087  -0.34901
 Alpha  occ. eigenvalues --   -0.34336  -0.33903  -0.33516  -0.33008  -0.32705
 Alpha  occ. eigenvalues --   -0.31869  -0.31336  -0.30733  -0.29979  -0.28917
 Alpha  occ. eigenvalues --   -0.28796  -0.28587  -0.27872  -0.27119  -0.26538
 Alpha  occ. eigenvalues --   -0.26311  -0.26178  -0.25574  -0.25043  -0.22640
 Alpha  occ. eigenvalues --   -0.22124  -0.21929  -0.17746
 Alpha virt. eigenvalues --   -0.02106  -0.01363  -0.00503  -0.00342  -0.00014
 Alpha virt. eigenvalues --    0.00332   0.02938   0.04413   0.05613   0.05863
 Alpha virt. eigenvalues --    0.06130   0.06363   0.06568   0.06690   0.06940
 Alpha virt. eigenvalues --    0.08058   0.08419   0.08619   0.09025   0.09285
 Alpha virt. eigenvalues --    0.09476   0.10193   0.10556   0.10697   0.10944
 Alpha virt. eigenvalues --    0.11267   0.11838   0.12112   0.12281   0.12496
 Alpha virt. eigenvalues --    0.13263   0.13593   0.14080   0.14127   0.14383
 Alpha virt. eigenvalues --    0.14694   0.14906   0.15093   0.15201   0.15428
 Alpha virt. eigenvalues --    0.15530   0.15682   0.15911   0.16196   0.16386
 Alpha virt. eigenvalues --    0.16777   0.16946   0.17300   0.17449   0.17758
 Alpha virt. eigenvalues --    0.18132   0.18209   0.18431   0.18672   0.19602
 Alpha virt. eigenvalues --    0.19754   0.20342   0.20575   0.21230   0.21508
 Alpha virt. eigenvalues --    0.21817   0.22349   0.22678   0.23165   0.23588
 Alpha virt. eigenvalues --    0.23712   0.24076   0.24717   0.25037   0.25337
 Alpha virt. eigenvalues --    0.25538   0.26033   0.26468   0.27004   0.27058
 Alpha virt. eigenvalues --    0.27889   0.28324   0.28598   0.28833   0.29017
 Alpha virt. eigenvalues --    0.29690   0.30022   0.30335   0.30445   0.30586
 Alpha virt. eigenvalues --    0.30804   0.31476   0.31868   0.32227   0.32656
 Alpha virt. eigenvalues --    0.33847   0.34163   0.34716   0.35202   0.35650
 Alpha virt. eigenvalues --    0.36677   0.37849   0.38064   0.40060   0.40390
 Alpha virt. eigenvalues --    0.40506   0.41467   0.42253   0.42782   0.43049
 Alpha virt. eigenvalues --    0.43739   0.43779   0.44355   0.44668   0.44889
 Alpha virt. eigenvalues --    0.45196   0.45491   0.45878   0.46051   0.46562
 Alpha virt. eigenvalues --    0.46603   0.46781   0.47058   0.47738   0.48108
 Alpha virt. eigenvalues --    0.48423   0.49222   0.49507   0.49630   0.49763
 Alpha virt. eigenvalues --    0.50417   0.50478   0.50782   0.51163   0.51634
 Alpha virt. eigenvalues --    0.51715   0.52272   0.52860   0.53321   0.53494
 Alpha virt. eigenvalues --    0.53780   0.54238   0.54861   0.56599   0.56744
 Alpha virt. eigenvalues --    0.56935   0.57558   0.57812   0.58686   0.59208
 Alpha virt. eigenvalues --    0.59522   0.59787   0.60382   0.60744   0.61731
 Alpha virt. eigenvalues --    0.61829   0.62351   0.62639   0.63107   0.63489
 Alpha virt. eigenvalues --    0.63748   0.64460   0.64587   0.64812   0.65239
 Alpha virt. eigenvalues --    0.65948   0.66317   0.66913   0.67291   0.67305
 Alpha virt. eigenvalues --    0.67528   0.67943   0.68075   0.68387   0.68512
 Alpha virt. eigenvalues --    0.68650   0.69318   0.69333   0.69624   0.69863
 Alpha virt. eigenvalues --    0.69990   0.70227   0.70378   0.70733   0.71312
 Alpha virt. eigenvalues --    0.71464   0.71511   0.71616   0.71875   0.72152
 Alpha virt. eigenvalues --    0.72257   0.72350   0.72640   0.73002   0.73175
 Alpha virt. eigenvalues --    0.73311   0.73363   0.73643   0.73967   0.74155
 Alpha virt. eigenvalues --    0.74302   0.74407   0.74625   0.74823   0.74913
 Alpha virt. eigenvalues --    0.75291   0.75303   0.75604   0.75826   0.75954
 Alpha virt. eigenvalues --    0.76279   0.76429   0.76572   0.76748   0.77112
 Alpha virt. eigenvalues --    0.77200   0.77335   0.77657   0.77829   0.78067
 Alpha virt. eigenvalues --    0.78270   0.78451   0.79225   0.79869   0.79971
 Alpha virt. eigenvalues --    0.80300   0.80475   0.80862   0.81183   0.81330
 Alpha virt. eigenvalues --    0.81784   0.82337   0.82506   0.82962   0.83327
 Alpha virt. eigenvalues --    0.83521   0.83986   0.84726   0.84944   0.85417
 Alpha virt. eigenvalues --    0.85704   0.86344   0.86573   0.86804   0.87356
 Alpha virt. eigenvalues --    0.87839   0.88498   0.88784   0.89401   0.89934
 Alpha virt. eigenvalues --    0.90847   0.91563   0.92034   0.92346   0.93221
 Alpha virt. eigenvalues --    0.93608   0.94082   0.94400   0.95117   0.95971
 Alpha virt. eigenvalues --    0.96431   0.97465   0.97976   0.98179   0.98615
 Alpha virt. eigenvalues --    0.99162   1.00142   1.00708   1.01317   1.01816
 Alpha virt. eigenvalues --    1.03737   1.04093   1.04228   1.04511   1.06310
 Alpha virt. eigenvalues --    1.07274   1.08297   1.09212   1.09641   1.10881
 Alpha virt. eigenvalues --    1.11576   1.12715   1.13571   1.14225   1.14875
 Alpha virt. eigenvalues --    1.15770   1.17336   1.18637   1.19719   1.19773
 Alpha virt. eigenvalues --    1.20634   1.21204   1.21989   1.22878   1.24027
 Alpha virt. eigenvalues --    1.24500   1.25415   1.25773   1.26526   1.26942
 Alpha virt. eigenvalues --    1.27211   1.27506   1.28262   1.28842   1.29536
 Alpha virt. eigenvalues --    1.30696   1.31518   1.31587   1.32520   1.33238
 Alpha virt. eigenvalues --    1.33584   1.34305   1.34752   1.35350   1.37334
 Alpha virt. eigenvalues --    1.37880   1.39084   1.40298   1.41156   1.41525
 Alpha virt. eigenvalues --    1.42594   1.43860   1.45564   1.47395   1.48353
 Alpha virt. eigenvalues --    1.48415   1.49001   1.49398   1.49937   1.50724
 Alpha virt. eigenvalues --    1.51511   1.51987   1.54803   1.56858   1.58403
 Alpha virt. eigenvalues --    1.59945   1.61387   1.63456   1.63652   1.64975
 Alpha virt. eigenvalues --    1.66288   1.67707   1.68716   1.70575   1.71547
 Alpha virt. eigenvalues --    1.72806   1.74164   1.75707   1.76161   1.76200
 Alpha virt. eigenvalues --    1.77196   1.77782   1.78809   1.79267   1.79726
 Alpha virt. eigenvalues --    1.80444   1.80658   1.81449   1.82051   1.82771
 Alpha virt. eigenvalues --    1.83142   1.85368   1.86188   1.88468   1.88683
 Alpha virt. eigenvalues --    1.89238   1.89455   1.90210   1.90585   1.90776
[...]
   414. RY*(   3) C  43                  0.00146     0.77419   
   415. RY*(   4) C  43                  0.00108     0.74302   
   416. RY*(   5) C  43                  0.00055     1.72581   
   417. RY*(   6) C  43                  0.00014     2.31093   
   418. RY*(   7) C  43                  0.00006     2.26675   
   419. RY*(   8) C  43                  0.00002     2.08527   
   420. RY*(   9) C  43                  0.00002     1.89017   
   421. RY*(   1) H  44                  0.00171     0.33286   
   422. RY*(   1) H  45                  0.00168     0.33353   
   423. RY*(   1) H  46                  0.00176     0.33636   
   424. RY*(   1) H  47                  0.00261     0.45087   
   425. RY*(   1) H  48                  0.00210     0.40136   
   426. RY*(   1) H  49                  0.00180     0.38717   
   427. RY*(   1) C  50                  0.00476     1.04463   
   428. RY*(   2) C  50                  0.00400     1.14320   
   429. RY*(   3) C  50                  0.00245     0.84365   
   430. RY*(   4) C  50                  0.00149     1.14761   
   431. RY*(   5) C  50                  0.00043     1.97935   
   432. RY*(   6) C  50                  0.00031     1.96832   
   433. RY*(   7) C  50                  0.00023     2.09785   
   434. RY*(   8) C  50                  0.00016     2.09423   
   435. RY*(   9) C  50                  0.00013     1.86946   
   436. RY*(   1) C  51                  0.00590     1.06138   
   437. RY*(   2) C  51                  0.00335     0.84566   
   438. RY*(   3) C  51                  0.00121     0.92814   
   439. RY*(   4) C  51                  0.00077     1.02623   
   440. RY*(   5) C  51                  0.00029     1.88295   
   441. RY*(   6) C  51                  0.00020     2.01945   
   442. RY*(   7) C  51                  0.00012     2.08341   
   443. RY*(   8) C  51                  0.00002     2.05408   
   444. RY*(   9) C  51                  0.00003     1.98911   
   445. RY*(   1) C  52                  0.00598     1.06291   
   446. RY*(   2) C  52                  0.00331     0.94194   
   447. RY*(   3) C  52                  0.00143     0.89589   
   448. RY*(   4) C  52                  0.00079     1.07797   
   449. RY*(   5) C  52                  0.00028     1.88212   
   450. RY*(   6) C  52                  0.00025     1.93558   
   451. RY*(   7) C  52                  0.00011     2.21061   
   452. RY*(   8) C  52                  0.00005     2.06689   
   453. RY*(   9) C  52                  0.00003     2.08250   
   454. RY*(   1) H  53                  0.00467     0.52007   
   455. RY*(   1) C  54                  0.00599     1.04093   
   456. RY*(   2) C  54                  0.00183     1.08819   
   457. RY*(   3) C  54                  0.00124     0.72447   
   458. RY*(   4) C  54                  0.00055     1.05329   
   459. RY*(   5) C  54                  0.00032     1.85152   
   460. RY*(   6) C  54                  0.00015     2.20903   
   461. RY*(   7) C  54                  0.00006     1.78366   
   462. RY*(   8) C  54                  0.00002     2.04916   
   463. RY*(   9) C  54                  0.00001     1.82951   
   464. RY*(   1) H  55                  0.00336     0.51336   
   465. RY*(   1) H  56                  0.00263     0.49447   
   466. RY*(   1) C  57                  0.00604     1.04775   
   467. RY*(   2) C  57                  0.00190     1.07042   
   468. RY*(   3) C  57                  0.00124     0.72184   
   469. RY*(   4) C  57                  0.00062     1.10048   
   470. RY*(   5) C  57                  0.00033     1.84773   
   471. RY*(   6) C  57                  0.00015     2.21258   
   472. RY*(   7) C  57                  0.00007     1.84169   
   473. RY*(   8) C  57                  0.00002     2.06226   
   474. RY*(   9) C  57                  0.00002     1.81043   
   475. RY*(   1) H  58                  0.00355     0.54566   
   476. RY*(   1) H  59                  0.00899     0.76597   
   477. RY*(   1) C  60                  0.00513     1.06808   
   478. RY*(   2) C  60                  0.00162     1.16346   
   479. RY*(   3) C  60                  0.00123     0.69555   
   480. RY*(   4) C  60                  0.00043     1.04660   
   481. RY*(   5) C  60                  0.00033     1.84004   
   482. RY*(   6) C  60                  0.00015     2.22797   
   483. RY*(   7) C  60                  0.00008     1.71392   
   484. RY*(   8) C  60                  0.00001     1.84410   
   485. RY*(   9) C  60                  0.00002     2.05147   
   486. RY*(   1) H  61                  0.00229     0.37336   
   487. RY*(   1) H  62                  0.00309     0.40276   
   488. RY*(   1) H  63                  0.00237     0.40255   
   489. RY*(   1) H  64                  0.00313     0.40115   
   490. RY*(   1) H  65                  0.00330     0.52083   
   491. RY*(   1) H  66                  0.00233     0.37237   
   492. RY*(   1) C  67                  0.00551     1.11275   
   493. RY*(   2) C  67                  0.00304     0.84202   
   494. RY*(   3) C  67                  0.00273     1.00113   
   495. RY*(   4) C  67                  0.00190     1.04357   
   496. RY*(   5) C  67                  0.00049     2.07962   
   497. RY*(   6) C  67                  0.00031     2.02658   
   498. RY*(   7) C  67                  0.00021     1.97726   
   499. RY*(   8) C  67                  0.00016     2.03641   
   500. RY*(   9) C  67                  0.00012     1.99720   
   501. RY*(   1) C  68                  0.00589     1.06777   
   502. RY*(   2) C  68                  0.00318     0.90696   
   503. RY*(   3) C  68                  0.00120     0.92835   
   504. RY*(   4) C  68                  0.00064     0.99965   
   505. RY*(   5) C  68                  0.00030     1.86753   
   506. RY*(   6) C  68                  0.00019     1.86138   
   507. RY*(   7) C  68                  0.00013     2.12743   
   508. RY*(   8) C  68                  0.00003     2.06905   
   509. RY*(   9) C  68                  0.00002     2.01251   
   510. RY*(   1) C  69                  0.00575     1.07515   
   511. RY*(   2) C  69                  0.00341     0.92993   
   512. RY*(   3) C  69                  0.00134     0.84034   
   513. RY*(   4) C  69                  0.00090     1.10525   
   514. RY*(   5) C  69                  0.00028     1.89867   
   515. RY*(   6) C  69                  0.00024     1.85545   
   516. RY*(   7) C  69                  0.00014     2.23983   
   517. RY*(   8) C  69                  0.00005     2.00977   
   518. RY*(   9) C  69                  0.00003     2.06805   
   519. RY*(   1) H  70                  0.00366     0.47750   
   520. RY*(   1) C  71                  0.00604     1.03401   
   521. RY*(   2) C  71                  0.00172     1.11153   
   522. RY*(   3) C  71                  0.00127     0.71844   
   523. RY*(   4) C  71                  0.00056     1.03484   
   524. RY*(   5) C  71                  0.00033     1.83403   
   525. RY*(   6) C  71                  0.00015     2.20835   
   526. RY*(   7) C  71                  0.00006     1.71501   
   527. RY*(   8) C  71                  0.00001     1.92107   
   528. RY*(   9) C  71                  0.00002     1.97073   
   529. RY*(   1) H  72                  0.00336     0.49192   
   530. RY*(   1) H  73                  0.00305     0.42036   
   531. RY*(   1) C  74                  0.00587     1.03617   
   532. RY*(   2) C  74                  0.00184     1.06829   
   533. RY*(   3) C  74                  0.00128     0.74238   
   534. RY*(   4) C  74                  0.00053     1.03290   
   535. RY*(   5) C  74                  0.00034     1.85587   
   536. RY*(   6) C  74                  0.00015     2.21640   
   537. RY*(   7) C  74                  0.00008     1.76299   
   538. RY*(   8) C  74                  0.00002     1.88143   
   539. RY*(   9) C  74                  0.00002     2.02585   
   540. RY*(   1) H  75                  0.00625     0.73602   
   541. RY*(   1) H  76                  0.00268     0.48650   
   542. RY*(   1) C  77                  0.00531     1.04700   
   543. RY*(   2) C  77                  0.00166     1.13770   
   544. RY*(   3) C  77                  0.00123     0.68856   
   545. RY*(   4) C  77                  0.00043     1.04332   
   546. RY*(   5) C  77                  0.00032     1.81095   
   547. RY*(   6) C  77                  0.00015     2.22053   
   548. RY*(   7) C  77                  0.00006     1.72855   
   549. RY*(   8) C  77                  0.00001     1.92895   
   550. RY*(   9) C  77                  0.00002     1.93274   
   551. RY*(   1) H  78                  0.00228     0.36750   
   552. RY*(   1) H  79                  0.00301     0.39408   
   553. RY*(   1) H  80                  0.00245     0.38142   
   554. RY*(   1) H  81                  0.00299     0.43859   
   555. RY*(   1) H  82                  0.00301     0.39322   
   556. RY*(   1) H  83                  0.00230     0.36618   
   569. BD*(   1) C  12 - C  13          0.02333     0.53130   
   570. BD*(   1) C  12 - C  16          0.02873     0.52555   
   571. BD*(   2) C  12 - C  16          0.47604     0.04105  574(v),564(r),162(v),570(g)
                                                    156(r),558(r),159(r),160(r)
                                                    257(g),222(g),259(g),223(g)
                                                    593(r),219(r),218(r),220(r)
                                                    161(r),174(r)
   572. BD*(   1) C  12 - H  17          0.01681     0.48470   
   573. BD*(   1) C  13 - C  14          0.05170     0.49488   
   574. BD*(   2) C  13 - C  14          0.53343     0.02798  571(v),162(v),159(r),573(g)
                                                    156(r),584(v),581(v),157(r)
                                                    583(v),241(g),231(g),577(g)
                                                    585(v),593(r),558(r),564(r)
                                                    152(r),218(r),160(r),220(r)
                                                    217(r),161(r)
   575. BD*(   1) C  13 - C  20          0.03595     0.44798   
   576. BD*(   1) C  14 - C  15          0.04336     0.50354   
   577. BD*(   1) C  14 - P  22          0.03052     0.27686   
   578. BD*(   1) C  15 - C  16          0.03065     0.53855   
   579. BD*(   1) C  15 - H  18          0.01752     0.49673   
   580. BD*(   1) C  16 - H  19          0.01667     0.48764   
   581. BD*(   1) C  20 - H  21          0.02303     0.45529   
   582. BD*(   1) C  20 - C  23          0.01961     0.40972   
   583. BD*(   1) C  20 - P  27          0.04054     0.23424   
   584. BD*(   1) P  22 - C  50          0.03814     0.23716   
   585. BD*(   1) P  22 - C  67          0.03896     0.24664   
   586. BD*(   1) C  23 - H  24          0.00789     0.48186   
   587. BD*(   1) C  23 - H  25          0.01134     0.45965   
   588. BD*(   1) C  23 - H  26          0.00928     0.46087   
   589. BD*(   1) P  27 - C  28          0.03142     0.27480   
   590. BD*(   1) P  27 - C  38          0.04679     0.28102   
   591. BD*(   1) C  28 - C  29          0.02662     0.58247   
   592. BD*(   1) C  28 - C  33          0.03097     0.59693   
   593. BD*(   2) C  28 - C  33          0.36920     0.03684  600(v),595(v),356(g),590(v)
                                                    349(v),312(g),571(r),320(v)
   594. BD*(   1) C  29 - C  30          0.02012     0.60725   
   595. BD*(   2) C  29 - C  30          0.32049     0.04276  600(v),593(v),329(g),320(g)
                                                    322(g),330(g)
   596. BD*(   1) C  29 - H  49          0.01662     0.48741   
   597. BD*(   1) C  30 - C  31          0.01878     0.59783   
   598. BD*(   1) C  30 - H  34          0.01490     0.48455   
   599. BD*(   1) C  31 - C  32          0.01828     0.59970   
   600. BD*(   2) C  31 - C  32          0.32956     0.04325  595(v),593(v),339(g),348(g)
                                                    349(g)
   601. BD*(   1) C  31 - H  35          0.01483     0.48491   
   602. BD*(   1) C  32 - C  33          0.02079     0.60328   
   603. BD*(   1) C  32 - H  36          0.01498     0.48487   
   604. BD*(   1) C  33 - H  37          0.01732     0.50236   
   605. BD*(   1) C  38 - C  39          0.02563     0.59079   
   606. BD*(   1) C  38 - C  43          0.02651     0.60349   
   607. BD*(   2) C  38 - C  43          0.37703     0.04693  609(v),614(v),414(g),370(g)
                                                    583(v),407(v),415(g),378(v)
   608. BD*(   1) C  39 - C  40          0.01972     0.61317   
   609. BD*(   2) C  39 - C  40          0.32653     0.05103  614(v),607(v),378(g),387(g)
                                                    389(g),380(g),388(g)
   610. BD*(   1) C  39 - H  48          0.01689     0.48347   
   611. BD*(   1) C  40 - C  41          0.01853     0.60602   
   612. BD*(   1) C  40 - H  44          0.01471     0.48942   
   613. BD*(   1) C  41 - C  42          0.01834     0.61113   
   614. BD*(   2) C  41 - C  42          0.33709     0.05332  609(v),607(v),396(g),407(g)
                                                    406(g),389(v)
   615. BD*(   1) C  41 - H  45          0.01488     0.49248   
   616. BD*(   1) C  42 - C  43          0.01982     0.61224   
   617. BD*(   1) C  42 - H  46          0.01493     0.49219   
   618. BD*(   1) C  43 - H  47          0.01751     0.50154   
   619. BD*(   1) C  50 - C  51          0.02447     0.42185   
   620. BD*(   1) C  50 - C  52          0.02327     0.42990   
   621. BD*(   1) C  50 - H  53          0.02922     0.46700   
   622. BD*(   1) C  51 - C  54          0.01918     0.43868   
   623. BD*(   1) C  51 - H  55          0.01940     0.47678   
   624. BD*(   1) C  51 - H  56          0.01359     0.49500   
   625. BD*(   1) C  52 - C  57          0.01811     0.44407   
   626. BD*(   1) C  52 - H  58          0.01422     0.50860   
   627. BD*(   1) C  52 - H  59          0.02010     0.51242   
   628. BD*(   1) C  54 - C  60          0.01763     0.43988   
   629. BD*(   1) C  54 - H  61          0.01335     0.48452   
   630. BD*(   1) C  54 - H  62          0.01891     0.46776   
   631. BD*(   1) C  57 - C  60          0.01761     0.44084   
   632. BD*(   1) C  57 - H  63          0.01362     0.48822   
   633. BD*(   1) C  57 - H  64          0.01897     0.46974   
   634. BD*(   1) C  60 - H  65          0.01901     0.47838   
   635. BD*(   1) C  60 - H  66          0.01378     0.48562   
   636. BD*(   1) C  67 - C  68          0.02269     0.41387   
   637. BD*(   1) C  67 - C  69          0.03110     0.42206   
   638. BD*(   1) C  67 - H  70          0.02363     0.46400   
   639. BD*(   1) C  68 - C  71          0.01828     0.42979   
   640. BD*(   1) C  68 - H  72          0.01891     0.46071   
   641. BD*(   1) C  68 - H  73          0.01522     0.48782   
   642. BD*(   1) C  69 - C  74          0.02076     0.43192   
   643. BD*(   1) C  69 - H  75          0.02054     0.52206   
   644. BD*(   1) C  69 - H  76          0.02028     0.45805   
   645. BD*(   1) C  71 - C  77          0.01736     0.43173   
   646. BD*(   1) C  71 - H  78          0.01313     0.48020   
   647. BD*(   1) C  71 - H  79          0.01858     0.46305   
   648. BD*(   1) C  74 - C  77          0.01761     0.43268   
   649. BD*(   1) C  74 - H  80          0.01381     0.47803   
   650. BD*(   1) C  74 - H  81          0.01881     0.46186   
   651. BD*(   1) C  77 - H  82          0.01857     0.46326   
   652. BD*(   1) C  77 - H  83          0.01351     0.48065   
       -------------------------------
              Total Lewis  249.80317  ( 97.9480%)
        Valence non-Lewis    4.69050  (  1.8392%)
        Rydberg non-Lewis    0.54273  (  0.2128%)
       -------------------------------
            Total unit  3  255.03641  (100.0000%)
           Charge unit  3   -0.03641


 NATURAL LOCALIZED MOLECULAR ORBITAL (NLMO) ANALYSIS:

 Highest occupied NBOs are not at the beginning of the NBO list;
 The NLMO program is not currently set up to handle this.
 Leave Link  607 at Sat Aug 12 04:02:21 2023, MaxMem=  4026531840 cpu:              94.3 elap:               3.0
 (Enter /sw/arch/Centos8/EB_production/2021/software/Gaussian/g16.c01/l9999.exe)
 Unable to Open any file for archive entry.
 1\1\GINC-TCN153\SP\RPBE1PBE\def2SVPP\C36H44Fe1P2\ADARSH\12-Aug-2023\0\
 \#p pop=nbo NMR pbe1pbe/def2svpp empiricaldispersion=gd3bj integral=gr
 id=ultrafinegrid scf=(xqc,maxconventionalcycles=90) nosymm\\Cisa\\0,1\
 C,0,-4.53986,-0.59014,-1.44053\C,0,-5.09058,0.7142,-1.28594\C,0,-4.266
 48,1.62879,-2.00284\C,0,-3.20276,0.89042,-2.59659\C,0,-3.37298,-0.4806
 1,-2.25082\H,0,-4.94043,-1.50695,-1.00775\H,0,-5.97619,0.97045,-0.7042
 6\H,0,-4.41444,2.70724,-2.0664\H,0,-2.39741,1.30225,-3.20617\H,0,-2.71
 958,-1.30004,-2.55016\Fe,0,-3.17887,0.67422,-0.56115\C,0,-2.65394,2.18
 376,0.70512\C,0,-1.49793,1.59552,0.10606\C,0,-1.47967,0.19435,0.4769\C
 ,0,-2.65187,-0.03475,1.28156\C,0,-3.36125,1.18192,1.42033\H,0,-2.97434
 ,3.2178,0.59195\H,0,-2.93944,-0.98216,1.73314\H,0,-4.30261,1.31761,1.9
 5248\C,0,-0.54595,2.35074,-0.78541\H,0,-0.57457,1.87713,-1.78249\P,0,-
 0.08775,-0.97127,0.33348\C,0,-0.9234,3.81947,-0.95919\H,0,-0.23982,4.3
 3006,-1.65284\H,0,-1.94108,3.88862,-1.37928\H,0,-0.90762,4.37738,-0.01
 022\P,0,1.22186,2.01708,-0.31265\C,0,1.49152,2.41734,1.43911\C,0,2.671
 43,1.93306,2.02567\C,0,2.9472,2.18353,3.367\C,0,2.03457,2.90012,4.1429
 \C,0,0.855,3.37324,3.56947\C,0,0.58555,3.14177,2.22098\H,0,3.87094,1.8
 0494,3.81348\H,0,2.24231,3.08604,5.20047\H,0,0.13462,3.9286,4.17649\H,
 0,-0.34857,3.50807,1.79337\C,0,2.16951,3.28308,-1.22877\C,0,1.94678,3.
 43908,-2.60663\C,0,2.67385,4.37188,-3.34055\C,0,3.64236,5.15535,-2.710
 53\C,0,3.86977,5.00704,-1.34436\C,0,3.13544,4.07951,-0.60393\H,0,2.482
 95,4.48923,-4.41111\H,0,4.21586,5.88647,-3.28716\H,0,4.62034,5.62439,-
 0.84267\H,0,3.31184,3.98827,0.47102\H,0,1.18703,2.83603,-3.11589\H,0,3
 .36827,1.33648,1.42715\C,0,0.24245,-1.43894,2.12182\C,0,1.66429,-1.989
 08,2.28955\C,0,0.00703,-0.30664,3.1257\H,0,-0.47943,-2.24994,2.3425\C,
 0,1.93148,-2.44417,3.72222\H,0,2.37984,-1.19187,2.00744\H,0,1.84271,-2
 .83115,1.60405\C,0,0.26266,-0.77101,4.55733\H,0,-1.01547,0.08999,3.041
 75\H,0,0.68702,0.52721,2.89259\C,0,1.67022,-1.32904,4.72618\H,0,2.9702
 5,-2.80932,3.80517\H,0,1.27861,-3.30788,3.95343\H,0,0.09624,0.07473,5.
 24723\H,0,-0.47692,-1.54866,4.83014\H,0,2.40354,-0.51531,4.56723\H,0,1
 .82201,-1.69523,5.75631\C,0,-0.7696,-2.53951,-0.42924\C,0,0.14436,-3.7
 5372,-0.21829\C,0,-2.19323,-2.9203,-0.01968\H,0,-0.78152,-2.29772,-1.5
 1038\C,0,-0.33508,-4.94877,-1.0409\H,0,0.12673,-4.03235,0.85125\H,0,1.
 19094,-3.52967,-0.46675\C,0,-2.69535,-4.11833,-0.82434\H,0,-2.86758,-2
 .06763,-0.16459\H,0,-2.20912,-3.17413,1.05794\C,0,-1.7711,-5.32269,-0.
 69377\H,0,0.33928,-5.80665,-0.87444\H,0,-0.26548,-4.70005,-2.11799\H,0
 ,-3.71819,-4.37831,-0.49973\H,0,-2.77224,-3.82769,-1.89033\H,0,-1.8056
 8,-5.69723,0.3472\H,0,-2.12064,-6.15005,-1.33495\\Version=ES64L-G16Rev
 C.01\HF=-3341.2990043\RMSD=8.339e-09\Dipole=-0.7643894,0.2518165,0.412
 9597\Quadrupole=-0.585472,0.5993828,-0.0139109,-1.4183274,-0.493774,0.
 6192659\PG=C01 [X(C36H44Fe1P2)]\\@
 The archive entry for this job was punched.


 ORIGINALITY CONSISTS NOT IN SAYING WHAT NO ONE HAS EVER SAID BEFORE, 
 BUT IN SAYING WHAT YOU THINK YOUR SELF.

                                    -- JAMES F. STEPHEN
 Job cpu time:       0 days  2 hours 29 minutes 50.4 seconds.
 Elapsed time:       0 days  0 hours  6 minutes 21.6 seconds.
 File lengths (MBytes):  RWF=    480 Int=      0 D2E=      0 Chk=     40 Scr=     32
 Normal termination of Gaussian 16 at Sat Aug 12 04:02:21 2023.
