 Entering Gaussian System, Link 0=g16
 Input=free_ligand_L5_SP.inp
 Output=free_ligand_L5_SP.log
 Initial command:
 /sw/arch/RHEL8/EB_production/2022/software/Gaussian/g16.c02/l1.exe "/scratch-local/adarsh.3962536/Gau-1176975.inp" -scrdir="/scratch-local/adarsh.3962536/"
 Entering Link 1 = /sw/arch/RHEL8/EB_production/2022/software/Gaussian/g16.c02/l1.exe PID=   1176987.
  
 Copyright (c) 1988-2021, Gaussian, Inc.  All Rights Reserved.
  
 This is part of the Gaussian(R) 16 program.  It is based on
 the Gaussian(R) 09 system (copyright 2009, Gaussian, Inc.),
 the Gaussian(R) 03 system (copyright 2003, Gaussian, Inc.),
 the Gaussian(R) 98 system (copyright 1998, Gaussian, Inc.),
 the Gaussian(R) 94 system (copyright 1995, Gaussian, Inc.),
 the Gaussian 92(TM) system (copyright 1992, Gaussian, Inc.),
 the Gaussian 90(TM) system (copyright 1990, Gaussian, Inc.),
 the Gaussian 88(TM) system (copyright 1988, Gaussian, Inc.),
 the Gaussian 86(TM) system (copyright 1986, Carnegie Mellon
 University), and the Gaussian 82(TM) system (copyright 1983,
 Carnegie Mellon University). Gaussian is a federally registered
 trademark of Gaussian, Inc.
  
 This software contains proprietary and confidential information,
 including trade secrets, belonging to Gaussian, Inc.
  
 This software is provided under written license and may be
 used, copied, transmitted, or stored only in accord with that
 written license.
  
 The following legend is applicable only to US Government
 contracts under FAR:
  
                    RESTRICTED RIGHTS LEGEND
  
 Use, reproduction and disclosure by the US Government is
 subject to restrictions as set forth in subparagraphs (a)
 and (c) of the Commercial Computer Software - Restricted
 Rights clause in FAR 52.227-19.
  
 Gaussian, Inc.
 340 Quinnipiac St., Bldg. 40, Wallingford CT 06492
  
  
 ---------------------------------------------------------------
 Warning -- This program may not be used in any manner that
 competes with the business of Gaussian, Inc. or will provide
 assistance to any competitor of Gaussian, Inc.  The licensee
 of this program is prohibited from giving any competitor of
 Gaussian, Inc. access to this program.  By using this program,
 the user acknowledges that Gaussian, Inc. is engaged in the
 business of creating and licensing software in the field of
 computational chemistry and represents and warrants to the
 licensee that it is not a competitor of Gaussian, Inc. and that
 it will not use this program in any manner prohibited above.
 ---------------------------------------------------------------
  

 Cite this work as:
 Gaussian 16, Revision C.02,
 M. J. Frisch, G. W. Trucks, H. B. Schlegel, G. E. Scuseria, 
 M. A. Robb, J. R. Cheeseman, G. Scalmani, V. Barone, 
 G. A. Petersson, H. Nakatsuji, X. Li, M. Caricato, A. V. Marenich, 
 J. Bloino, B. G. Janesko, R. Gomperts, B. Mennucci, H. P. Hratchian, 
 J. V. Ortiz, A. F. Izmaylov, J. L. Sonnenberg, D. Williams-Young, 
 F. Ding, F. Lipparini, F. Egidi, J. Goings, B. Peng, A. Petrone, 
 T. Henderson, D. Ranasinghe, V. G. Zakrzewski, J. Gao, N. Rega, 
 G. Zheng, W. Liang, M. Hada, M. Ehara, K. Toyota, R. Fukuda, 
 J. Hasegawa, M. Ishida, T. Nakajima, Y. Honda, O. Kitao, H. Nakai, 
 T. Vreven, K. Throssell, J. A. Montgomery, Jr., J. E. Peralta, 
 F. Ogliaro, M. J. Bearpark, J. J. Heyd, E. N. Brothers, K. N. Kudin, 
 V. N. Staroverov, T. A. Keith, R. Kobayashi, J. Normand, 
 K. Raghavachari, A. P. Rendell, J. C. Burant, S. S. Iyengar, 
 J. Tomasi, M. Cossi, J. M. Millam, M. Klene, C. Adamo, R. Cammi, 
 J. W. Ochterski, R. L. Martin, K. Morokuma, O. Farkas, 
 J. B. Foresman, and D. J. Fox, Gaussian, Inc., Wallingford CT, 2019.
 
 ******************************************
 Gaussian 16:  ES64L-G16RevC.02  7-Dec-2021
                29-Sep-2023 
 ******************************************
 %nprocshared=32
 Will use up to   32 processors via shared memory.
 %mem=30GB
 %chk=free_ligand_L5.chk
 ----------------------------------------------------------------------
 #p pop=nbo pbe1pbe/def2svpp empiricaldispersion=gd3bj integral=grid=ul
 trafinegrid scf=(xqc,maxconventionalcycles=90) nosymm
 ----------------------------------------------------------------------
 1/38=1,172=1/1;
 2/12=2,15=1,17=6,18=5,40=1/2;
 3/5=43,7=202,11=2,25=1,30=1,74=-13,75=-5,124=41/1,2,3;
 4//1;
 5/5=2,8=3,13=1,38=5,85=90/2,8;
 6/7=2,8=2,9=2,10=2,28=1,40=1/1,7;
 99/5=1,9=1/99;
 Leave Link    1 at Fri Sep 29 19:31:54 2023, MaxMem=  4026531840 cpu:               0.3 elap:               0.8
 (Enter /sw/arch/RHEL8/EB_production/2022/software/Gaussian/g16.c02/l101.exe)
 ----
 Cisa
 ----
 Symbolic Z-matrix:
 Charge =  0 Multiplicity = 1
 P                     0.15639   0.96604  -0.80758 
 C                     1.1977    0.54283  -2.23867 
 C                     0.60266  -0.09941  -3.33075 
 C                     1.38125  -0.50891  -4.41353 
 C                     2.75449  -0.26617  -4.41339 
 C                     3.35029   0.38438  -3.33024 
 C                     2.57723   0.78395  -2.2434 
 C                     0.71201   2.60828  -0.2415 
 C                     0.44575   3.01159   1.07566 
 C                     0.70728   4.31919   1.47687 
 C                     1.23136   5.24147   0.56946 
 C                     1.49016   4.84953  -0.74309 
 C                     1.22812   3.54128  -1.15048 
 P                    -2.63178  -0.71776  -0.09327 
 C                    -1.26333  -1.97778   0.10114 
 C                    -1.71767  -3.31174   0.67607 
 C                     0.58214  -0.15195   0.54475 
 C                    -0.16271  -1.33832   0.89832 
 C                     0.33407  -1.78824   2.15773 
 C                     1.38708  -0.92498   2.56885 
 C                     1.55298   0.07693   1.5773 
 H                    -0.47972  -0.27688  -3.32208 
 H                     3.04885   1.28381  -1.39204 
 H                     0.03405   2.29823   1.79524 
 H                     1.428     3.24946  -2.18545 
 H                    -0.90592  -2.13151  -0.93311 
 H                    -0.86676  -4.01362   0.70496 
 H                    -2.5152   -3.76237   0.06477 
 H                    -2.09429  -3.19944   1.70473 
 H                     2.28082   0.88751   1.5943 
 C                    -3.57547   0.53245   4.21889 
 C                    -3.98267  -0.74308   3.80459 
 C                    -3.72905  -1.1264    2.48528 
 C                    -3.08858  -0.24901   1.60043 
 C                    -2.71407   1.02506   2.03681 
 C                    -2.94253   1.43036   3.35583 
 H                    -4.05583  -2.11294   2.14412 
 H                    -2.24321   1.71358   1.32459 
 C                    -6.17367  -2.77468  -2.1635 
 C                    -6.43191  -1.95396  -1.06354 
 C                    -5.34533  -1.37433  -0.39433 
 C                    -4.03692  -1.60961  -0.82182 
 C                    -3.80858  -2.42295  -1.94121 
 C                    -4.8714   -3.02279  -2.61888 
 H                    -5.53165  -0.73403   0.47331 
 H                    -2.78793  -2.59233  -2.3016 
 Fe                    1.81846  -1.76425   0.75289 
 C                     2.72814  -3.58732   0.90224 
 C                     3.69858  -2.54518   0.93062 
 C                     3.58548  -1.80465  -0.28067 
 C                     2.54684  -2.39212  -1.06099 
 C                     2.01829  -3.49271  -0.33035 
 H                     2.54481  -4.31321   1.6948 
 H                     4.18305  -0.93704  -0.55677 
 H                     2.20797  -2.04873  -2.03814 
 H                     1.20395  -4.14236  -0.65281 
 H                     3.36619  -0.58308  -5.26288 
 H                     1.43876   6.26722   0.88707 
 H                    -3.77014   0.83854   5.25292 
 H                    -7.01552  -3.23892  -2.68868 
 C                    -4.67723  -1.66852   4.76239 
 H                    -5.61114  -1.21936   5.14367 
 H                    -4.93356  -2.62783   4.28503 
 H                    -4.04103  -1.88489   5.63861 
 C                    -2.49181   2.78234   3.83133 
 H                    -3.18715   3.20415   4.57562 
 H                    -1.49883   2.71567   4.31395 
 H                    -2.40664   3.4963    2.99532 
 C                    -7.83951  -1.67252  -0.62213 
 H                    -7.8886   -1.45111   0.45657 
 H                    -8.25019  -0.79655  -1.15755 
 H                    -8.50649  -2.5249   -0.83026 
 C                    -4.63339  -3.92603  -3.7948 
 H                    -5.29686  -3.67053  -4.63847 
 H                    -3.59111  -3.86727  -4.14778 
 H                    -4.83773  -4.97909  -3.52958 
 H                     1.98948  -1.03809   3.47005 
 H                    -0.00003  -2.67423   2.6948 
 H                     4.38641  -2.33384   1.74962 
 H                     0.50088   4.61959   2.50836 
 H                     1.90105   5.56645  -1.45965 
 H                     4.42724   0.57569  -3.33245 
 H                     0.91326  -1.01466  -5.26283 
 
 ITRead=  0  0  0  0  0  0  0  0  0  0  0  0  0  0  0  0  0  0  0  0
 ITRead=  0  0  0  0  0  0  0  0  0  0  0  0  0  0  0  0  0  0  0  0
 ITRead=  0  0  0  0  0  0  0  0  0  0  0  0  0  0  0  0  0  0  0  0
 ITRead=  0  0  0  0  0  0  0  0  0  0  0  0  0  0  0  0  0  0  0  0
 ITRead=  0  0  0
 MicOpt= -1 -1 -1 -1 -1 -1 -1 -1 -1 -1 -1 -1 -1 -1 -1 -1 -1 -1 -1 -1
 MicOpt= -1 -1 -1 -1 -1 -1 -1 -1 -1 -1 -1 -1 -1 -1 -1 -1 -1 -1 -1 -1
 MicOpt= -1 -1 -1 -1 -1 -1 -1 -1 -1 -1 -1 -1 -1 -1 -1 -1 -1 -1 -1 -1
 MicOpt= -1 -1 -1 -1 -1 -1 -1 -1 -1 -1 -1 -1 -1 -1 -1 -1 -1 -1 -1 -1
 MicOpt= -1 -1 -1
 NAtoms=     83 NQM=       83 NQMF=       0 NMMI=      0 NMMIF=      0
                NMic=       0 NMicF=      0.
                    Isotopes and Nuclear Properties:
 (Nuclear quadrupole moments (NQMom) in fm**2, nuclear magnetic moments (NMagM)
  in nuclear magnetons)

  Atom         1           2           3           4           5           6           7           8           9          10
 IAtWgt=          31          12          12          12          12          12          12          12          12          12
 AtmWgt=  30.9737634  12.0000000  12.0000000  12.0000000  12.0000000  12.0000000  12.0000000  12.0000000  12.0000000  12.0000000
 NucSpn=           1           0           0           0           0           0           0           0           0           0
 AtZEff=  -0.0000000  -0.0000000  -0.0000000  -0.0000000  -0.0000000  -0.0000000  -0.0000000  -0.0000000  -0.0000000  -0.0000000
 NQMom=    0.0000000   0.0000000   0.0000000   0.0000000   0.0000000   0.0000000   0.0000000   0.0000000   0.0000000   0.0000000
 NMagM=    1.1316000   0.0000000   0.0000000   0.0000000   0.0000000   0.0000000   0.0000000   0.0000000   0.0000000   0.0000000
 AtZNuc=  15.0000000   6.0000000   6.0000000   6.0000000   6.0000000   6.0000000   6.0000000   6.0000000   6.0000000   6.0000000

  Atom        11          12          13          14          15          16          17          18          19          20
 IAtWgt=          12          12          12          31          12          12          12          12          12          12
 AtmWgt=  12.0000000  12.0000000  12.0000000  30.9737634  12.0000000  12.0000000  12.0000000  12.0000000  12.0000000  12.0000000
 NucSpn=           0           0           0           1           0           0           0           0           0           0
 AtZEff=  -0.0000000  -0.0000000  -0.0000000  -0.0000000  -0.0000000  -0.0000000  -0.0000000  -0.0000000  -0.0000000  -0.0000000
 NQMom=    0.0000000   0.0000000   0.0000000   0.0000000   0.0000000   0.0000000   0.0000000   0.0000000   0.0000000   0.0000000
 NMagM=    0.0000000   0.0000000   0.0000000   1.1316000   0.0000000   0.0000000   0.0000000   0.0000000   0.0000000   0.0000000
 AtZNuc=   6.0000000   6.0000000   6.0000000  15.0000000   6.0000000   6.0000000   6.0000000   6.0000000   6.0000000   6.0000000

  Atom        21          22          23          24          25          26          27          28          29          30
 IAtWgt=          12           1           1           1           1           1           1           1           1           1
 AtmWgt=  12.0000000   1.0078250   1.0078250   1.0078250   1.0078250   1.0078250   1.0078250   1.0078250   1.0078250   1.0078250
 NucSpn=           0           1           1           1           1           1           1           1           1           1
 AtZEff=  -0.0000000  -0.0000000  -0.0000000  -0.0000000  -0.0000000  -0.0000000  -0.0000000  -0.0000000  -0.0000000  -0.0000000
 NQMom=    0.0000000   0.0000000   0.0000000   0.0000000   0.0000000   0.0000000   0.0000000   0.0000000   0.0000000   0.0000000
 NMagM=    0.0000000   2.7928460   2.7928460   2.7928460   2.7928460   2.7928460   2.7928460   2.7928460   2.7928460   2.7928460
 AtZNuc=   6.0000000   1.0000000   1.0000000   1.0000000   1.0000000   1.0000000   1.0000000   1.0000000   1.0000000   1.0000000

  Atom        31          32          33          34          35          36          37          38          39          40
 IAtWgt=          12          12          12          12          12          12           1           1          12          12
 AtmWgt=  12.0000000  12.0000000  12.0000000  12.0000000  12.0000000  12.0000000   1.0078250   1.0078250  12.0000000  12.0000000
 NucSpn=           0           0           0           0           0           0           1           1           0           0
 AtZEff=  -0.0000000  -0.0000000  -0.0000000  -0.0000000  -0.0000000  -0.0000000  -0.0000000  -0.0000000  -0.0000000  -0.0000000
 NQMom=    0.0000000   0.0000000   0.0000000   0.0000000   0.0000000   0.0000000   0.0000000   0.0000000   0.0000000   0.0000000
 NMagM=    0.0000000   0.0000000   0.0000000   0.0000000   0.0000000   0.0000000   2.7928460   2.7928460   0.0000000   0.0000000
 AtZNuc=   6.0000000   6.0000000   6.0000000   6.0000000   6.0000000   6.0000000   1.0000000   1.0000000   6.0000000   6.0000000

  Atom        41          42          43          44          45          46          47          48          49          50
 IAtWgt=          12          12          12          12           1           1          56          12          12          12
 AtmWgt=  12.0000000  12.0000000  12.0000000  12.0000000   1.0078250   1.0078250  55.9349393  12.0000000  12.0000000  12.0000000
 NucSpn=           0           0           0           0           1           1           0           0           0           0
 AtZEff=  -0.0000000  -0.0000000  -0.0000000  -0.0000000  -0.0000000  -0.0000000  -0.0000000  -0.0000000  -0.0000000  -0.0000000
 NQMom=    0.0000000   0.0000000   0.0000000   0.0000000   0.0000000   0.0000000   0.0000000   0.0000000   0.0000000   0.0000000
 NMagM=    0.0000000   0.0000000   0.0000000   0.0000000   2.7928460   2.7928460   0.0000000   0.0000000   0.0000000   0.0000000
 AtZNuc=   6.0000000   6.0000000   6.0000000   6.0000000   1.0000000   1.0000000  26.0000000   6.0000000   6.0000000   6.0000000

  Atom        51          52          53          54          55          56          57          58          59          60
 IAtWgt=          12          12           1           1           1           1           1           1           1           1
 AtmWgt=  12.0000000  12.0000000   1.0078250   1.0078250   1.0078250   1.0078250   1.0078250   1.0078250   1.0078250   1.0078250
 NucSpn=           0           0           1           1           1           1           1           1           1           1
 AtZEff=  -0.0000000  -0.0000000  -0.0000000  -0.0000000  -0.0000000  -0.0000000  -0.0000000  -0.0000000  -0.0000000  -0.0000000
 NQMom=    0.0000000   0.0000000   0.0000000   0.0000000   0.0000000   0.0000000   0.0000000   0.0000000   0.0000000   0.0000000
 NMagM=    0.0000000   0.0000000   2.7928460   2.7928460   2.7928460   2.7928460   2.7928460   2.7928460   2.7928460   2.7928460
 AtZNuc=   6.0000000   6.0000000   1.0000000   1.0000000   1.0000000   1.0000000   1.0000000   1.0000000   1.0000000   1.0000000

  Atom        61          62          63          64          65          66          67          68          69          70
 IAtWgt=          12           1           1           1          12           1           1           1          12           1
 AtmWgt=  12.0000000   1.0078250   1.0078250   1.0078250  12.0000000   1.0078250   1.0078250   1.0078250  12.0000000   1.0078250
 NucSpn=           0           1           1           1           0           1           1           1           0           1
 AtZEff=  -0.0000000  -0.0000000  -0.0000000  -0.0000000  -0.0000000  -0.0000000  -0.0000000  -0.0000000  -0.0000000  -0.0000000
 NQMom=    0.0000000   0.0000000   0.0000000   0.0000000   0.0000000   0.0000000   0.0000000   0.0000000   0.0000000   0.0000000
 NMagM=    0.0000000   2.7928460   2.7928460   2.7928460   0.0000000   2.7928460   2.7928460   2.7928460   0.0000000   2.7928460
 AtZNuc=   6.0000000   1.0000000   1.0000000   1.0000000   6.0000000   1.0000000   1.0000000   1.0000000   6.0000000   1.0000000

  Atom        71          72          73          74          75          76          77          78          79          80
 IAtWgt=           1           1          12           1           1           1           1           1           1           1
 AtmWgt=   1.0078250   1.0078250  12.0000000   1.0078250   1.0078250   1.0078250   1.0078250   1.0078250   1.0078250   1.0078250
 NucSpn=           1           1           0           1           1           1           1           1           1           1
 AtZEff=  -0.0000000  -0.0000000  -0.0000000  -0.0000000  -0.0000000  -0.0000000  -0.0000000  -0.0000000  -0.0000000  -0.0000000
 NQMom=    0.0000000   0.0000000   0.0000000   0.0000000   0.0000000   0.0000000   0.0000000   0.0000000   0.0000000   0.0000000
 NMagM=    2.7928460   2.7928460   0.0000000   2.7928460   2.7928460   2.7928460   2.7928460   2.7928460   2.7928460   2.7928460
 AtZNuc=   1.0000000   1.0000000   6.0000000   1.0000000   1.0000000   1.0000000   1.0000000   1.0000000   1.0000000   1.0000000

  Atom        81          82          83
 IAtWgt=           1           1           1
 AtmWgt=   1.0078250   1.0078250   1.0078250
 NucSpn=           1           1           1
 AtZEff=  -0.0000000  -0.0000000  -0.0000000
 NQMom=    0.0000000   0.0000000   0.0000000
 NMagM=    2.7928460   2.7928460   2.7928460
 AtZNuc=   1.0000000   1.0000000   1.0000000
 Leave Link  101 at Fri Sep 29 19:31:54 2023, MaxMem=  4026531840 cpu:               0.1 elap:               0.1
 (Enter /sw/arch/RHEL8/EB_production/2022/software/Gaussian/g16.c02/l202.exe)
 Symmetry turned off by external request.
 Stoichiometry    C40H40FeP2
 Framework group  C1[X(C40H40FeP2)]
 Deg. of freedom   243
 Full point group                 C1      NOp   1
                          Input orientation:                          
 ---------------------------------------------------------------------
 Center     Atomic      Atomic             Coordinates (Angstroms)
 Number     Number       Type             X           Y           Z
 ---------------------------------------------------------------------
      1         15           0        0.156390    0.966040   -0.807580
      2          6           0        1.197700    0.542830   -2.238670
      3          6           0        0.602660   -0.099410   -3.330750
      4          6           0        1.381250   -0.508910   -4.413530
      5          6           0        2.754490   -0.266170   -4.413390
      6          6           0        3.350290    0.384380   -3.330240
      7          6           0        2.577230    0.783950   -2.243400
      8          6           0        0.712010    2.608280   -0.241500
      9          6           0        0.445750    3.011590    1.075660
     10          6           0        0.707280    4.319190    1.476870
     11          6           0        1.231360    5.241470    0.569460
     12          6           0        1.490160    4.849530   -0.743090
     13          6           0        1.228120    3.541280   -1.150480
     14         15           0       -2.631780   -0.717760   -0.093270
     15          6           0       -1.263330   -1.977780    0.101140
     16          6           0       -1.717670   -3.311740    0.676070
     17          6           0        0.582140   -0.151950    0.544750
     18          6           0       -0.162710   -1.338320    0.898320
     19          6           0        0.334070   -1.788240    2.157730
     20          6           0        1.387080   -0.924980    2.568850
     21          6           0        1.552980    0.076930    1.577300
     22          1           0       -0.479720   -0.276880   -3.322080
     23          1           0        3.048850    1.283810   -1.392040
     24          1           0        0.034050    2.298230    1.795240
     25          1           0        1.428000    3.249460   -2.185450
     26          1           0       -0.905920   -2.131510   -0.933110
     27          1           0       -0.866760   -4.013620    0.704960
     28          1           0       -2.515200   -3.762370    0.064770
     29          1           0       -2.094290   -3.199440    1.704730
     30          1           0        2.280820    0.887510    1.594300
     31          6           0       -3.575470    0.532450    4.218890
     32          6           0       -3.982670   -0.743080    3.804590
     33          6           0       -3.729050   -1.126400    2.485280
     34          6           0       -3.088580   -0.249010    1.600430
     35          6           0       -2.714070    1.025060    2.036810
     36          6           0       -2.942530    1.430360    3.355830
     37          1           0       -4.055830   -2.112940    2.144120
     38          1           0       -2.243210    1.713580    1.324590
     39          6           0       -6.173670   -2.774680   -2.163500
     40          6           0       -6.431910   -1.953960   -1.063540
     41          6           0       -5.345330   -1.374330   -0.394330
     42          6           0       -4.036920   -1.609610   -0.821820
     43          6           0       -3.808580   -2.422950   -1.941210
     44          6           0       -4.871400   -3.022790   -2.618880
     45          1           0       -5.531650   -0.734030    0.473310
     46          1           0       -2.787930   -2.592330   -2.301600
     47         26           0        1.818460   -1.764250    0.752890
     48          6           0        2.728140   -3.587320    0.902240
     49          6           0        3.698580   -2.545180    0.930620
     50          6           0        3.585480   -1.804650   -0.280670
     51          6           0        2.546840   -2.392120   -1.060990
     52          6           0        2.018290   -3.492710   -0.330350
     53          1           0        2.544810   -4.313210    1.694800
     54          1           0        4.183050   -0.937040   -0.556770
     55          1           0        2.207970   -2.048730   -2.038140
     56          1           0        1.203950   -4.142360   -0.652810
     57          1           0        3.366190   -0.583080   -5.262880
     58          1           0        1.438760    6.267220    0.887070
     59          1           0       -3.770140    0.838540    5.252920
     60          1           0       -7.015520   -3.238920   -2.688680
     61          6           0       -4.677230   -1.668520    4.762390
     62          1           0       -5.611140   -1.219360    5.143670
     63          1           0       -4.933560   -2.627830    4.285030
     64          1           0       -4.041030   -1.884890    5.638610
     65          6           0       -2.491810    2.782340    3.831330
     66          1           0       -3.187150    3.204150    4.575620
     67          1           0       -1.498830    2.715670    4.313950
     68          1           0       -2.406640    3.496300    2.995320
     69          6           0       -7.839510   -1.672520   -0.622130
     70          1           0       -7.888600   -1.451110    0.456570
     71          1           0       -8.250190   -0.796550   -1.157550
     72          1           0       -8.506490   -2.524900   -0.830260
     73          6           0       -4.633390   -3.926030   -3.794800
     74          1           0       -5.296860   -3.670530   -4.638470
     75          1           0       -3.591110   -3.867270   -4.147780
     76          1           0       -4.837730   -4.979090   -3.529580
     77          1           0        1.989480   -1.038090    3.470050
     78          1           0       -0.000030   -2.674230    2.694800
     79          1           0        4.386410   -2.333840    1.749620
     80          1           0        0.500880    4.619590    2.508360
     81          1           0        1.901050    5.566450   -1.459650
     82          1           0        4.427240    0.575690   -3.332450
     83          1           0        0.913260   -1.014660   -5.262830
 ---------------------------------------------------------------------
 Rotational constants (GHZ):           0.0867894           0.0595566           0.0520970
 Leave Link  202 at Fri Sep 29 19:31:55 2023, MaxMem=  4026531840 cpu:               0.1 elap:               0.0
 (Enter /sw/arch/RHEL8/EB_production/2022/software/Gaussian/g16.c02/l301.exe)
 Standard basis: def2SVPP (5D, 7F)
 Ernie: Thresh=  0.10000D-02 Tol=  0.10000D-05 Strict=F.
   700 basis functions,  1305 primitive gaussians,   744 cartesian basis functions
   168 alpha electrons      168 beta electrons
       nuclear repulsion energy      6362.1304294547 Hartrees.
 IExCor= 1009 DFT=T Ex+Corr=PBE1PBE ExCW=0 ScaHFX=  0.250000
 ScaDFX=  0.750000  0.750000  1.000000  1.000000 ScalE2=  1.000000  1.000000
 IRadAn=      5 IRanWt=     -1 IRanGd=            0 ICorTp=0 IEmpDi=141
 NAtoms=   83 NActive=   83 NUniq=   83 SFac= 1.00D+00 NAtFMM=   60 NAOKFM=T Big=T
 Integral buffers will be    131072 words long.
 Raffenetti 2 integral format.
 Two-electron integral symmetry is turned off.
 R6Disp:  Grimme-D3(BJ) Dispersion energy=       -0.1280390754 Hartrees.
 Nuclear repulsion after empirical dispersion term =     6362.0023903792 Hartrees.
 Leave Link  301 at Fri Sep 29 19:31:55 2023, MaxMem=  4026531840 cpu:               0.7 elap:               0.1
 (Enter /sw/arch/RHEL8/EB_production/2022/software/Gaussian/g16.c02/l302.exe)
 NPDir=0 NMtPBC=     1 NCelOv=     1 NCel=       1 NClECP=     1 NCelD=      1
         NCelK=      1 NCelE2=     1 NClLst=     1 CellRange=     0.0.
 One-electron integrals computed using PRISM.
   1 Symmetry operations used in ECPInt.
 ECPInt:  NShTT=   60031 NPrTT=  248886 LenC2=   51339 LenP2D=  131250.
 LDataN:  DoStor=T MaxTD1= 4 Len=   56
 NBasis=   700 RedAO= T EigKep=  2.35D-04  NBF=   700
 NBsUse=   700 1.00D-06 EigRej= -1.00D+00 NBFU=   700
 Precomputing XC quadrature grid using
 IXCGrd= 4 IRadAn=           5 IRanWt=          -1 IRanGd=           0 AccXCQ= 0.00D+00.
 Generated NRdTot=       0 NPtTot=           0 NUsed=           0 NTot=          32
 NSgBfM=   718   716   717   718   718 MxSgAt=    83 MxSgA2=    83.
 Leave Link  302 at Fri Sep 29 19:31:56 2023, MaxMem=  4026531840 cpu:              16.0 elap:               1.0
 (Enter /sw/arch/RHEL8/EB_production/2022/software/Gaussian/g16.c02/l303.exe)
 DipDrv:  MaxL=1.
 Leave Link  303 at Fri Sep 29 19:31:56 2023, MaxMem=  4026531840 cpu:               0.4 elap:               0.1
 (Enter /sw/arch/RHEL8/EB_production/2022/software/Gaussian/g16.c02/l401.exe)
 ExpMin= 3.37D-02 ExpMax= 6.09D+04 ExpMxC= 9.15D+03 IAcc=3 IRadAn=         5 AccDes= 0.00D+00
 Harris functional with IExCor= 1009 and IRadAn=       5 diagonalized for initial guess.
 HarFok:  IExCor= 1009 AccDes= 0.00D+00 IRadAn=         5 IDoV= 1 UseB2=F ITyADJ=14
 ICtDFT=  3500011 ScaDFX=  1.000000  1.000000  1.000000  1.000000
 FoFCou: FMM=F IPFlag=           0 FMFlag=      100000 FMFlg1=        2001
         NFxFlg=           0 DoJE=T BraDBF=F KetDBF=T FulRan=T
         wScrn=  0.000000 ICntrl=       500 IOpCl=  0 I1Cent=   200000004 NGrid=           0
         NMat0=    1 NMatS0=      1 NMatT0=    0 NMatD0=    1 NMtDS0=    0 NMtDT0=    0
 Symmetry not used in FoFCou.
 Harris En= -3491.44290450544    
 JPrj=0 DoOrth=F DoCkMO=F.
 Leave Link  401 at Fri Sep 29 19:31:58 2023, MaxMem=  4026531840 cpu:              65.7 elap:               2.4
 (Enter /sw/arch/RHEL8/EB_production/2022/software/Gaussian/g16.c02/l502.exe)
 Two-electron integral symmetry not used.
 Closed shell SCF:
 Using DIIS extrapolation, IDIIS=  1040.
 NGot=  4026531840 LenX=  4025391596 LenY=  4024837316
 Requested convergence on RMS density matrix=1.00D-08 within  90 cycles.
 Requested convergence on MAX density matrix=1.00D-06.
 Requested convergence on             energy=1.00D-06.
 No special actions if energy rises.
 Fock matrices will be formed incrementally for  20 cycles.

 Cycle   1  Pass 1  IDiag  1:
 FoFJK:  IHMeth= 1 ICntrl=       0 DoSepK=F KAlg= 0 I1Cent=           0 FoldK=F
 IRaf= 990000000 NMat=       1 IRICut=       1 DoRegI=T DoRafI=F ISym2E= 0 IDoP0=0 IntGTp=1.
 FoFCou: FMM=T IPFlag=           0 FMFlag=      100000 FMFlg1=        2001
         NFxFlg=           0 DoJE=F BraDBF=F KetDBF=F FulRan=T
         wScrn=  0.000000 ICntrl=         0 IOpCl=  0 I1Cent=           0 NGrid=           0
         NMat0=    1 NMatS0=      1 NMatT0=    0 NMatD0=    1 NMtDS0=    0 NMtDT0=    0
 Symmetry not used in FoFCou.
 FMM levels:  10  Number of levels for PrismC:   9
 E= -3490.04802115277    
 DIIS: error= 2.44D-02 at cycle   1 NSaved=   1.
 NSaved= 1 IEnMin= 1 EnMin= -3490.04802115277     IErMin= 1 ErrMin= 2.44D-02
 ErrMax= 2.44D-02  0.00D+00 EMaxC= 1.00D-01 BMatC= 9.03D-01 BMatP= 9.03D-01
 IDIUse=3 WtCom= 7.56D-01 WtEn= 2.44D-01
 Coeff-Com:  0.100D+01
 Coeff-En:   0.100D+01
 Coeff:      0.100D+01
 Gap=     0.215 Goal=   None    Shift=    0.000
 GapD=    0.215 DampG=1.000 DampE=0.250 DampFc=0.2500 IDamp=-1.
 Damping current iteration by 2.50D-01
 RMSDP=4.14D-03 MaxDP=2.13D-01              OVMax= 1.81D-01

 Cycle   2  Pass 1  IDiag  1:
 RMSU=  9.72D-04    CP:  9.78D-01
 E= -3490.39277048373     Delta-E=       -0.344749330967 Rises=F Damp=T
 DIIS: error= 1.32D-02 at cycle   2 NSaved=   2.
 NSaved= 2 IEnMin= 2 EnMin= -3490.39277048373     IErMin= 2 ErrMin= 1.32D-02
 ErrMax= 1.32D-02  0.00D+00 EMaxC= 1.00D-01 BMatC= 2.37D-01 BMatP= 9.03D-01
 IDIUse=3 WtCom= 8.68D-01 WtEn= 1.32D-01
 Coeff-Com: -0.604D+00 0.160D+01
 Coeff-En:   0.000D+00 0.100D+01
 Coeff:     -0.525D+00 0.152D+01
 Gap=     0.264 Goal=   None    Shift=    0.000
 RMSDP=3.83D-03 MaxDP=4.01D-01 DE=-3.45D-01 OVMax= 4.47D-01

 Cycle   3  Pass 1  IDiag  1:
 RMSU=  3.75D-03    CP:  9.64D-01  1.75D+00
 E= -3489.34468619763     Delta-E=        1.048084286100 Rises=F Damp=F
 DIIS: error= 1.09D-01 at cycle   3 NSaved=   3.
 NSaved= 3 IEnMin= 2 EnMin= -3490.39277048373     IErMin= 2 ErrMin= 1.32D-02
 ErrMax= 1.09D-01  0.00D+00 EMaxC= 1.00D-01 BMatC= 2.66D+00 BMatP= 2.37D-01
 IDIUse=2 WtCom= 0.00D+00 WtEn= 1.00D+00
 Coeff-En:   0.000D+00 0.783D+00 0.217D+00
 Coeff:      0.000D+00 0.783D+00 0.217D+00
 Gap=     0.359 Goal=   None    Shift=    0.000
 RMSDP=5.09D-03 MaxDP=4.49D-01 DE= 1.05D+00 OVMax= 2.71D-01

 Cycle   4  Pass 1  IDiag  1:
 RMSU=  1.56D-03    CP:  9.16D-01  2.75D+00 -2.47D-01
 E= -3489.25016086031     Delta-E=        0.094525337325 Rises=F Damp=F
 DIIS: error= 8.10D-02 at cycle   4 NSaved=   4.
 NSaved= 4 IEnMin= 2 EnMin= -3490.39277048373     IErMin= 2 ErrMin= 1.32D-02
 ErrMax= 8.10D-02  0.00D+00 EMaxC= 1.00D-01 BMatC= 2.98D+00 BMatP= 2.37D-01
 IDIUse=2 WtCom= 0.00D+00 WtEn= 1.00D+00
 EnCoef did     1 forward-backward iterations
 Coeff-En:   0.325D-01 0.000D+00 0.490D+00 0.477D+00
 Coeff:      0.325D-01 0.000D+00 0.490D+00 0.477D+00
 Gap=     0.114 Goal=   None    Shift=    0.000
 RMSDP=2.18D-03 MaxDP=2.24D-01 DE= 9.45D-02 OVMax= 2.86D-01

 Cycle   5  Pass 1  IDiag  1:
 RMSU=  8.54D-04    CP:  9.50D-01  1.60D+00  1.22D-01  5.28D-01
 E= -3490.97295680112     Delta-E=       -1.722795940816 Rises=F Damp=F
 DIIS: error= 6.90D-03 at cycle   5 NSaved=   5.
 NSaved= 5 IEnMin= 5 EnMin= -3490.97295680112     IErMin= 5 ErrMin= 6.90D-03
 ErrMax= 6.90D-03  0.00D+00 EMaxC= 1.00D-01 BMatC= 6.89D-02 BMatP= 2.37D-01
 IDIUse=3 WtCom= 9.31D-01 WtEn= 6.90D-02
 Coeff-Com: -0.600D+00 0.814D+00 0.831D-01-0.898D-01 0.792D+00
 Coeff-En:   0.000D+00 0.000D+00 0.407D-01 0.000D+00 0.959D+00
 Coeff:     -0.558D+00 0.758D+00 0.802D-01-0.836D-01 0.804D+00
 Gap=     0.164 Goal=   None    Shift=    0.000
 RMSDP=6.73D-04 MaxDP=6.49D-02 DE=-1.72D+00 OVMax= 3.85D-02

 Cycle   6  Pass 1  IDiag  1:
 RMSU=  3.54D-04    CP:  9.45D-01  2.04D+00  1.89D-01  3.51D-01  9.52D-01
 E= -3491.03631948174     Delta-E=       -0.063362680612 Rises=F Damp=F
 DIIS: error= 2.76D-03 at cycle   6 NSaved=   6.
 NSaved= 6 IEnMin= 6 EnMin= -3491.03631948174     IErMin= 6 ErrMin= 2.76D-03
 ErrMax= 2.76D-03  0.00D+00 EMaxC= 1.00D-01 BMatC= 8.19D-03 BMatP= 6.89D-02
 IDIUse=3 WtCom= 9.72D-01 WtEn= 2.76D-02
 Coeff-Com: -0.373D+00 0.501D+00 0.488D-01-0.695D-01 0.498D+00 0.394D+00
 Coeff-En:   0.000D+00 0.000D+00 0.000D+00 0.000D+00 0.000D+00 0.100D+01
 Coeff:     -0.363D+00 0.487D+00 0.475D-01-0.676D-01 0.484D+00 0.411D+00
 Gap=     0.151 Goal=   None    Shift=    0.000
 RMSDP=2.44D-04 MaxDP=1.90D-02 DE=-6.34D-02 OVMax= 2.19D-02

 Cycle   7  Pass 1  IDiag  1:
 RMSU=  1.21D-04    CP:  9.46D-01  2.02D+00  1.76D-01  3.38D-01  9.95D-01
                    CP:  4.31D-01
 E= -3491.04284448244     Delta-E=       -0.006525000706 Rises=F Damp=F
 DIIS: error= 2.11D-03 at cycle   7 NSaved=   7.
 NSaved= 7 IEnMin= 7 EnMin= -3491.04284448244     IErMin= 7 ErrMin= 2.11D-03
 ErrMax= 2.11D-03  0.00D+00 EMaxC= 1.00D-01 BMatC= 2.22D-03 BMatP= 8.19D-03
 IDIUse=3 WtCom= 9.79D-01 WtEn= 2.11D-02
 Coeff-Com: -0.294D-01 0.352D-01 0.120D-01-0.217D-01 0.407D-01 0.213D+00
 Coeff-Com:  0.750D+00
 Coeff-En:   0.000D+00 0.000D+00 0.000D+00 0.000D+00 0.000D+00 0.534D-01
 Coeff-En:   0.947D+00
 Coeff:     -0.288D-01 0.345D-01 0.118D-01-0.212D-01 0.398D-01 0.210D+00
 Coeff:      0.754D+00
 Gap=     0.151 Goal=   None    Shift=    0.000
 RMSDP=7.48D-05 MaxDP=5.99D-03 DE=-6.53D-03 OVMax= 7.50D-03

 Cycle   8  Pass 1  IDiag  1:
 RMSU=  4.56D-05    CP:  9.46D-01  2.02D+00  1.82D-01  3.33D-01  1.00D+00
                    CP:  5.56D-01  7.49D-01
 E= -3491.04423381596     Delta-E=       -0.001389333520 Rises=F Damp=F
 DIIS: error= 6.55D-04 at cycle   8 NSaved=   8.
 NSaved= 8 IEnMin= 8 EnMin= -3491.04423381596     IErMin= 8 ErrMin= 6.55D-04
 ErrMax= 6.55D-04  0.00D+00 EMaxC= 1.00D-01 BMatC= 2.59D-04 BMatP= 2.22D-03
 IDIUse=3 WtCom= 9.93D-01 WtEn= 6.55D-03
 Coeff-Com:  0.381D-01-0.548D-01 0.208D-02-0.445D-02-0.479D-01 0.610D-01
 Coeff-Com:  0.426D+00 0.580D+00
 Coeff-En:   0.000D+00 0.000D+00 0.000D+00 0.000D+00 0.000D+00 0.000D+00
 Coeff-En:   0.000D+00 0.100D+01
 Coeff:      0.379D-01-0.545D-01 0.207D-02-0.442D-02-0.476D-01 0.606D-01
 Coeff:      0.424D+00 0.582D+00
 Gap=     0.151 Goal=   None    Shift=    0.000
 RMSDP=2.83D-05 MaxDP=1.76D-03 DE=-1.39D-03 OVMax= 2.75D-03

 Cycle   9  Pass 1  IDiag  1:
 RMSU=  1.87D-05    CP:  9.46D-01  2.02D+00  1.84D-01  3.32D-01  1.01D+00
                    CP:  5.52D-01  8.29D-01  6.62D-01
 E= -3491.04442440639     Delta-E=       -0.000190590425 Rises=F Damp=F
 DIIS: error= 1.83D-04 at cycle   9 NSaved=   9.
 NSaved= 9 IEnMin= 9 EnMin= -3491.04442440639     IErMin= 9 ErrMin= 1.83D-04
 ErrMax= 1.83D-04  0.00D+00 EMaxC= 1.00D-01 BMatC= 2.15D-05 BMatP= 2.59D-04
 IDIUse=3 WtCom= 9.98D-01 WtEn= 1.83D-03
 Coeff-Com:  0.217D-01-0.299D-01 0.247D-03-0.493D-03-0.287D-01 0.483D-02
 Coeff-Com:  0.120D+00 0.291D+00 0.621D+00
 Coeff-En:   0.000D+00 0.000D+00 0.000D+00 0.000D+00 0.000D+00 0.000D+00
 Coeff-En:   0.000D+00 0.000D+00 0.100D+01
 Coeff:      0.217D-01-0.299D-01 0.247D-03-0.492D-03-0.286D-01 0.482D-02
 Coeff:      0.120D+00 0.291D+00 0.621D+00
 Gap=     0.151 Goal=   None    Shift=    0.000
 RMSDP=9.50D-06 MaxDP=4.81D-04 DE=-1.91D-04 OVMax= 1.18D-03

 Cycle  10  Pass 1  IDiag  1:
 RMSU=  7.22D-06    CP:  9.46D-01  2.02D+00  1.85D-01  3.30D-01  1.01D+00
                    CP:  5.56D-01  8.28D-01  7.29D-01  8.03D-01
 E= -3491.04444047355     Delta-E=       -0.000016067159 Rises=F Damp=F
 DIIS: error= 4.03D-05 at cycle  10 NSaved=  10.
 NSaved=10 IEnMin=10 EnMin= -3491.04444047355     IErMin=10 ErrMin= 4.03D-05
 ErrMax= 4.03D-05  0.00D+00 EMaxC= 1.00D-01 BMatC= 2.27D-06 BMatP= 2.15D-05
 IDIUse=1 WtCom= 1.00D+00 WtEn= 0.00D+00
 Coeff-Com:  0.708D-02-0.928D-02-0.150D-03 0.221D-03-0.991D-02-0.524D-02
 Coeff-Com:  0.113D-01 0.893D-01 0.388D+00 0.529D+00
 Coeff:      0.708D-02-0.928D-02-0.150D-03 0.221D-03-0.991D-02-0.524D-02
 Coeff:      0.113D-01 0.893D-01 0.388D+00 0.529D+00
 Gap=     0.151 Goal=   None    Shift=    0.000
 RMSDP=3.58D-06 MaxDP=1.43D-04 DE=-1.61D-05 OVMax= 4.19D-04

 Cycle  11  Pass 1  IDiag  1:
 RMSU=  1.98D-06    CP:  9.46D-01  2.02D+00  1.85D-01  3.30D-01  1.01D+00
                    CP:  5.56D-01  8.31D-01  7.32D-01  8.73D-01  6.43D-01
 E= -3491.04444277777     Delta-E=       -0.000002304223 Rises=F Damp=F
 DIIS: error= 3.72D-05 at cycle  11 NSaved=  11.
 NSaved=11 IEnMin=11 EnMin= -3491.04444277777     IErMin=11 ErrMin= 3.72D-05
 ErrMax= 3.72D-05  0.00D+00 EMaxC= 1.00D-01 BMatC= 5.13D-07 BMatP= 2.27D-06
 IDIUse=1 WtCom= 1.00D+00 WtEn= 0.00D+00
 Coeff-Com:  0.164D-02-0.202D-02-0.149D-03 0.140D-03-0.238D-02-0.221D-02
 Coeff-Com: -0.193D-02 0.236D-01 0.157D+00 0.277D+00 0.550D+00
 Coeff:      0.164D-02-0.202D-02-0.149D-03 0.140D-03-0.238D-02-0.221D-02
 Coeff:     -0.193D-02 0.236D-01 0.157D+00 0.277D+00 0.550D+00
 Gap=     0.151 Goal=   None    Shift=    0.000
 RMSDP=1.07D-06 MaxDP=6.56D-05 DE=-2.30D-06 OVMax= 1.01D-04

 Cycle  12  Pass 1  IDiag  1:
 RMSU=  7.78D-07    CP:  9.46D-01  2.02D+00  1.85D-01  3.30D-01  1.01D+00
                    CP:  5.56D-01  8.32D-01  7.35D-01  8.75D-01  6.83D-01
                    CP:  7.92D-01
 E= -3491.04444310765     Delta-E=       -0.000000329883 Rises=F Damp=F
 DIIS: error= 1.77D-05 at cycle  12 NSaved=  12.
 NSaved=12 IEnMin=12 EnMin= -3491.04444310765     IErMin=12 ErrMin= 1.77D-05
 ErrMax= 1.77D-05  0.00D+00 EMaxC= 1.00D-01 BMatC= 1.01D-07 BMatP= 5.13D-07
 IDIUse=1 WtCom= 1.00D+00 WtEn= 0.00D+00
 Coeff-Com:  0.240D-04 0.207D-04-0.886D-04 0.545D-04-0.267D-04-0.212D-03
 Coeff-Com: -0.130D-02 0.358D-02 0.424D-01 0.876D-01 0.253D+00 0.615D+00
 Coeff:      0.240D-04 0.207D-04-0.886D-04 0.545D-04-0.267D-04-0.212D-03
 Coeff:     -0.130D-02 0.358D-02 0.424D-01 0.876D-01 0.253D+00 0.615D+00
 Gap=     0.151 Goal=   None    Shift=    0.000
 RMSDP=6.89D-07 MaxDP=5.05D-05 DE=-3.30D-07 OVMax= 8.00D-05

 Cycle  13  Pass 1  IDiag  1:
 RMSU=  3.71D-07    CP:  9.46D-01  2.02D+00  1.84D-01  3.30D-01  1.01D+00
                    CP:  5.56D-01  8.31D-01  7.35D-01  8.82D-01  6.92D-01
                    CP:  9.02D-01  1.04D+00
 E= -3491.04444317666     Delta-E=       -0.000000069003 Rises=F Damp=F
 DIIS: error= 6.79D-06 at cycle  13 NSaved=  13.
 NSaved=13 IEnMin=13 EnMin= -3491.04444317666     IErMin=13 ErrMin= 6.79D-06
 ErrMax= 6.79D-06  0.00D+00 EMaxC= 1.00D-01 BMatC= 1.55D-08 BMatP= 1.01D-07
 IDIUse=1 WtCom= 1.00D+00 WtEn= 0.00D+00
 Coeff-Com: -0.311D-03 0.395D-03-0.286D-04 0.561D-05 0.480D-03 0.474D-03
 Coeff-Com:  0.221D-03-0.268D-02-0.125D-01-0.200D-01-0.248D-01 0.286D+00
 Coeff-Com:  0.773D+00
 Coeff:     -0.311D-03 0.395D-03-0.286D-04 0.561D-05 0.480D-03 0.474D-03
 Coeff:      0.221D-03-0.268D-02-0.125D-01-0.200D-01-0.248D-01 0.286D+00
 Coeff:      0.773D+00
 Gap=     0.151 Goal=   None    Shift=    0.000
 RMSDP=5.08D-07 MaxDP=4.17D-05 DE=-6.90D-08 OVMax= 7.96D-05

 Cycle  14  Pass 1  IDiag  1:
 RMSU=  1.94D-07    CP:  9.46D-01  2.02D+00  1.84D-01  3.30D-01  1.01D+00
                    CP:  5.56D-01  8.31D-01  7.35D-01  8.87D-01  7.09D-01
                    CP:  9.79D-01  1.36D+00  1.20D+00
 E= -3491.04444319650     Delta-E=       -0.000000019842 Rises=F Damp=F
 DIIS: error= 2.02D-06 at cycle  14 NSaved=  14.
 NSaved=14 IEnMin=14 EnMin= -3491.04444319650     IErMin=14 ErrMin= 2.02D-06
 ErrMax= 2.02D-06  0.00D+00 EMaxC= 1.00D-01 BMatC= 1.21D-09 BMatP= 1.55D-08
 IDIUse=1 WtCom= 1.00D+00 WtEn= 0.00D+00
 Coeff-Com: -0.138D-03 0.158D-03 0.988D-05-0.117D-04 0.193D-03 0.265D-03
 Coeff-Com:  0.530D-03-0.244D-02-0.205D-01-0.411D-01-0.111D+00-0.801D-01
 Coeff-Com:  0.419D+00 0.835D+00
 Coeff:     -0.138D-03 0.158D-03 0.988D-05-0.117D-04 0.193D-03 0.265D-03
 Coeff:      0.530D-03-0.244D-02-0.205D-01-0.411D-01-0.111D+00-0.801D-01
 Coeff:      0.419D+00 0.835D+00
 Gap=     0.151 Goal=   None    Shift=    0.000
 RMSDP=3.43D-07 MaxDP=3.22D-05 DE=-1.98D-08 OVMax= 7.26D-05

 Cycle  15  Pass 1  IDiag  1:
 RMSU=  9.78D-08    CP:  9.46D-01  2.02D+00  1.84D-01  3.30D-01  1.01D+00
                    CP:  5.56D-01  8.31D-01  7.36D-01  8.90D-01  7.18D-01
                    CP:  1.05D+00  1.59D+00  1.68D+00  1.24D+00
 E= -3491.04444320275     Delta-E=       -0.000000006248 Rises=F Damp=F
 DIIS: error= 1.41D-06 at cycle  15 NSaved=  15.
 NSaved=15 IEnMin=15 EnMin= -3491.04444320275     IErMin=15 ErrMin= 1.41D-06
 ErrMax= 1.41D-06  0.00D+00 EMaxC= 1.00D-01 BMatC= 8.75D-10 BMatP= 1.21D-09
 IDIUse=1 WtCom= 1.00D+00 WtEn= 0.00D+00
 Coeff-Com: -0.217D-04 0.229D-04 0.148D-04-0.939D-05 0.104D-04 0.630D-05
 Coeff-Com:  0.364D-04-0.106D-02-0.871D-02-0.178D-01-0.526D-01-0.103D+00
 Coeff-Com:  0.378D-01 0.437D+00 0.708D+00
 Coeff:     -0.217D-04 0.229D-04 0.148D-04-0.939D-05 0.104D-04 0.630D-05
 Coeff:      0.364D-04-0.106D-02-0.871D-02-0.178D-01-0.526D-01-0.103D+00
 Coeff:      0.378D-01 0.437D+00 0.708D+00
 Gap=     0.151 Goal=   None    Shift=    0.000
 RMSDP=1.52D-07 MaxDP=1.45D-05 DE=-6.25D-09 OVMax= 3.47D-05

 Cycle  16  Pass 1  IDiag  1:
 RMSU=  5.83D-08    CP:  9.46D-01  2.02D+00  1.84D-01  3.30D-01  1.01D+00
                    CP:  5.56D-01  8.31D-01  7.37D-01  8.91D-01  7.20D-01
                    CP:  1.07D+00  1.71D+00  1.85D+00  1.50D+00  1.18D+00
 E= -3491.04444320421     Delta-E=       -0.000000001461 Rises=F Damp=F
 DIIS: error= 1.23D-06 at cycle  16 NSaved=  16.
 NSaved=16 IEnMin=16 EnMin= -3491.04444320421     IErMin=16 ErrMin= 1.23D-06
 ErrMax= 1.23D-06  0.00D+00 EMaxC= 1.00D-01 BMatC= 4.39D-10 BMatP= 8.75D-10
 IDIUse=1 WtCom= 1.00D+00 WtEn= 0.00D+00
 Coeff-Com:  0.158D-04-0.196D-04 0.812D-05-0.309D-05-0.264D-04-0.566D-04
 Coeff-Com: -0.152D-03-0.114D-03 0.154D-03 0.110D-02 0.436D-02-0.176D-01
 Coeff-Com: -0.854D-01-0.253D-01 0.318D+00 0.805D+00
 Coeff:      0.158D-04-0.196D-04 0.812D-05-0.309D-05-0.264D-04-0.566D-04
 Coeff:     -0.152D-03-0.114D-03 0.154D-03 0.110D-02 0.436D-02-0.176D-01
 Coeff:     -0.854D-01-0.253D-01 0.318D+00 0.805D+00
 Gap=     0.151 Goal=   None    Shift=    0.000
 RMSDP=8.41D-08 MaxDP=8.92D-06 DE=-1.46D-09 OVMax= 1.81D-05

 Cycle  17  Pass 1  IDiag  1:
 RMSU=  2.62D-08    CP:  9.46D-01  2.02D+00  1.84D-01  3.30D-01  1.01D+00
                    CP:  5.56D-01  8.31D-01  7.37D-01  8.91D-01  7.21D-01
                    CP:  1.09D+00  1.77D+00  1.95D+00  1.62D+00  1.49D+00
                    CP:  1.10D+00
 E= -3491.04444320486     Delta-E=       -0.000000000658 Rises=F Damp=F
 DIIS: error= 4.51D-07 at cycle  17 NSaved=  17.
 NSaved=17 IEnMin=17 EnMin= -3491.04444320486     IErMin=17 ErrMin= 4.51D-07
 ErrMax= 4.51D-07  0.00D+00 EMaxC= 1.00D-01 BMatC= 7.21D-11 BMatP= 4.39D-10
 IDIUse=1 WtCom= 1.00D+00 WtEn= 0.00D+00
 Coeff-Com:  0.124D-04-0.148D-04 0.242D-05-0.428D-07-0.115D-04-0.263D-04
 Coeff-Com: -0.834D-04 0.153D-03 0.204D-02 0.501D-02 0.173D-01 0.207D-01
 Coeff-Com: -0.625D-01-0.144D+00-0.266D-01 0.488D+00 0.700D+00
 Coeff:      0.124D-04-0.148D-04 0.242D-05-0.428D-07-0.115D-04-0.263D-04
 Coeff:     -0.834D-04 0.153D-03 0.204D-02 0.501D-02 0.173D-01 0.207D-01
 Coeff:     -0.625D-01-0.144D+00-0.266D-01 0.488D+00 0.700D+00
 Gap=     0.151 Goal=   None    Shift=    0.000
 RMSDP=4.54D-08 MaxDP=4.67D-06 DE=-6.58D-10 OVMax= 9.40D-06

 Cycle  18  Pass 1  IDiag  1:
 RMSU=  1.21D-08    CP:  9.46D-01  2.02D+00  1.84D-01  3.30D-01  1.01D+00
                    CP:  5.56D-01  8.31D-01  7.37D-01  8.91D-01  7.22D-01
                    CP:  1.09D+00  1.79D+00  2.00D+00  1.70D+00  1.62D+00
                    CP:  1.33D+00  9.01D-01
 E= -3491.04444320483     Delta-E=        0.000000000033 Rises=F Damp=F
 DIIS: error= 5.57D-08 at cycle  18 NSaved=  18.
 NSaved=18 IEnMin=17 EnMin= -3491.04444320486     IErMin=18 ErrMin= 5.57D-08
 ErrMax= 5.57D-08  0.00D+00 EMaxC= 1.00D-01 BMatC= 5.19D-12 BMatP= 7.21D-11
 IDIUse=1 WtCom= 1.00D+00 WtEn= 0.00D+00
 Coeff-Com:  0.608D-06-0.112D-06 0.358D-06 0.120D-06 0.341D-05 0.200D-05
 Coeff-Com: -0.644D-05 0.600D-04 0.754D-03 0.198D-02 0.763D-02 0.135D-01
 Coeff-Com: -0.167D-01-0.673D-01-0.732D-01 0.109D+00 0.389D+00 0.635D+00
 Coeff:      0.608D-06-0.112D-06 0.358D-06 0.120D-06 0.341D-05 0.200D-05
 Coeff:     -0.644D-05 0.600D-04 0.754D-03 0.198D-02 0.763D-02 0.135D-01
 Coeff:     -0.167D-01-0.673D-01-0.732D-01 0.109D+00 0.389D+00 0.635D+00
 Gap=     0.151 Goal=   None    Shift=    0.000
 RMSDP=1.33D-08 MaxDP=1.21D-06 DE= 3.27D-11 OVMax= 2.54D-06

 Cycle  19  Pass 1  IDiag  1:
 RMSU=  4.91D-09    CP:  9.46D-01  2.02D+00  1.84D-01  3.30D-01  1.01D+00
                    CP:  5.56D-01  8.31D-01  7.37D-01  8.91D-01  7.22D-01
                    CP:  1.09D+00  1.80D+00  2.01D+00  1.72D+00  1.67D+00
                    CP:  1.39D+00  1.02D+00  8.04D-01
 E= -3491.04444320484     Delta-E=       -0.000000000007 Rises=F Damp=F
 DIIS: error= 2.34D-08 at cycle  19 NSaved=  19.
 NSaved=19 IEnMin=17 EnMin= -3491.04444320486     IErMin=19 ErrMin= 2.34D-08
 ErrMax= 2.34D-08  0.00D+00 EMaxC= 1.00D-01 BMatC= 7.41D-13 BMatP= 5.19D-12
 IDIUse=1 WtCom= 1.00D+00 WtEn= 0.00D+00
 Coeff-Com: -0.110D-05 0.164D-05 0.212D-07 0.291D-07 0.348D-05 0.473D-05
 Coeff-Com:  0.728D-05 0.137D-04 0.169D-03 0.512D-03 0.233D-02 0.508D-02
 Coeff-Com: -0.290D-02-0.216D-01-0.373D-01 0.938D-02 0.145D+00 0.363D+00
 Coeff-Com:  0.536D+00
 Coeff:     -0.110D-05 0.164D-05 0.212D-07 0.291D-07 0.348D-05 0.473D-05
 Coeff:      0.728D-05 0.137D-04 0.169D-03 0.512D-03 0.233D-02 0.508D-02
 Coeff:     -0.290D-02-0.216D-01-0.373D-01 0.938D-02 0.145D+00 0.363D+00
 Coeff:      0.536D+00
 Gap=     0.151 Goal=   None    Shift=    0.000
 RMSDP=3.09D-09 MaxDP=1.96D-07 DE=-7.28D-12 OVMax= 4.24D-07

 SCF Done:  E(RPBE1PBE) =  -3491.04444320     A.U. after   19 cycles
            NFock= 19  Conv=0.31D-08     -V/T= 2.0057
 KE= 3.471204136413D+03 PE=-2.093134625392D+04 EE= 7.607095283921D+03
 Leave Link  502 at Fri Sep 29 19:34:14 2023, MaxMem=  4026531840 cpu:            3969.5 elap:             135.5
 (Enter /sw/arch/RHEL8/EB_production/2022/software/Gaussian/g16.c02/l508.exe)
 QCSCF skips out because SCF is already converged.
 Leave Link  508 at Fri Sep 29 19:34:14 2023, MaxMem=  4026531840 cpu:               0.0 elap:               0.0
 (Enter /sw/arch/RHEL8/EB_production/2022/software/Gaussian/g16.c02/l601.exe)
 Copying SCF densities to generalized density rwf, IOpCl= 0 IROHF=0.

 **********************************************************************

            Population analysis using the SCF Density.

 **********************************************************************

 Alpha  occ. eigenvalues -- -256.34724 -77.18855 -77.17754 -30.12201 -25.97042
 Alpha  occ. eigenvalues --  -25.95169 -25.95142 -10.25125 -10.24709 -10.24591
 Alpha  occ. eigenvalues --  -10.24501 -10.24376 -10.24334 -10.24327 -10.24299
 Alpha  occ. eigenvalues --  -10.24295 -10.24271 -10.24230 -10.24227 -10.23950
 Alpha  occ. eigenvalues --  -10.23884 -10.23853 -10.23831 -10.23780 -10.23772
 Alpha  occ. eigenvalues --  -10.23720 -10.23699 -10.23634 -10.23537 -10.23513
 Alpha  occ. eigenvalues --  -10.23394 -10.23372 -10.23301 -10.23257 -10.23209
 Alpha  occ. eigenvalues --  -10.23052 -10.22998 -10.22993 -10.22860 -10.22625
 Alpha  occ. eigenvalues --  -10.22555 -10.22482 -10.22334 -10.22128 -10.22078
 Alpha  occ. eigenvalues --  -10.21978 -10.21742  -6.59891  -6.58826  -4.73947
 Alpha  occ. eigenvalues --   -4.73934  -4.73411  -4.72884  -4.72862  -4.72326
 Alpha  occ. eigenvalues --   -3.45378  -2.24359  -2.19626  -2.19577  -0.91834
 Alpha  occ. eigenvalues --   -0.89937  -0.88183  -0.87872  -0.87199  -0.87057
 Alpha  occ. eigenvalues --   -0.81364  -0.79832  -0.79361  -0.78633  -0.77940
 Alpha  occ. eigenvalues --   -0.76817  -0.76799  -0.76057  -0.75650  -0.73354
 Alpha  occ. eigenvalues --   -0.72571  -0.72443  -0.71554  -0.70557  -0.69989
 Alpha  occ. eigenvalues --   -0.69291  -0.68760  -0.66450  -0.65690  -0.62529
 Alpha  occ. eigenvalues --   -0.62362  -0.61717  -0.61020  -0.60135  -0.58709
 Alpha  occ. eigenvalues --   -0.58421  -0.57901  -0.56199  -0.55477  -0.55119
 Alpha  occ. eigenvalues --   -0.54794  -0.54454  -0.53689  -0.52888  -0.52076
 Alpha  occ. eigenvalues --   -0.50653  -0.50178  -0.49633  -0.48936  -0.48386
 Alpha  occ. eigenvalues --   -0.47466  -0.46732  -0.46341  -0.45815  -0.45473
 Alpha  occ. eigenvalues --   -0.44205  -0.44089  -0.43897  -0.43784  -0.43463
 Alpha  occ. eigenvalues --   -0.43272  -0.43036  -0.42598  -0.42545  -0.42356
 Alpha  occ. eigenvalues --   -0.42183  -0.42031  -0.41733  -0.41509  -0.41369
 Alpha  occ. eigenvalues --   -0.41226  -0.40853  -0.40774  -0.40622  -0.40347
 Alpha  occ. eigenvalues --   -0.39934  -0.39221  -0.39043  -0.38581  -0.38352
 Alpha  occ. eigenvalues --   -0.38218  -0.38068  -0.37980  -0.37422  -0.37066
 Alpha  occ. eigenvalues --   -0.36601  -0.36231  -0.35901  -0.35776  -0.35436
 Alpha  occ. eigenvalues --   -0.35076  -0.34781  -0.34730  -0.33669  -0.32902
 Alpha  occ. eigenvalues --   -0.32013  -0.28812  -0.28199  -0.27885  -0.27749
 Alpha  occ. eigenvalues --   -0.27359  -0.26752  -0.26414  -0.25807  -0.25714
 Alpha  occ. eigenvalues --   -0.25325  -0.25030  -0.24668  -0.24437  -0.22587
 Alpha  occ. eigenvalues --   -0.21515  -0.21267  -0.17599
 Alpha virt. eigenvalues --   -0.02530  -0.01791  -0.01242  -0.01012  -0.00558
 Alpha virt. eigenvalues --   -0.00153  -0.00004   0.00258   0.00817   0.00905
 Alpha virt. eigenvalues --    0.03614   0.04669   0.06328   0.06629   0.06993
 Alpha virt. eigenvalues --    0.07123   0.07350   0.07503   0.07918   0.08665
 Alpha virt. eigenvalues --    0.08781   0.09314   0.09600   0.09776   0.10123
 Alpha virt. eigenvalues --    0.10344   0.10762   0.11042   0.11527   0.11829
 Alpha virt. eigenvalues --    0.11995   0.12387   0.12593   0.12704   0.13024
 Alpha virt. eigenvalues --    0.13483   0.13725   0.13907   0.14289   0.14587
 Alpha virt. eigenvalues --    0.14684   0.14817   0.15001   0.15065   0.15675
 Alpha virt. eigenvalues --    0.15877   0.15952   0.16469   0.16575   0.16945
 Alpha virt. eigenvalues --    0.17207   0.17459   0.17580   0.17945   0.18038
 Alpha virt. eigenvalues --    0.18375   0.18593   0.18771   0.18869   0.19546
 Alpha virt. eigenvalues --    0.20392   0.20516   0.21169   0.21364   0.21828
 Alpha virt. eigenvalues --    0.22329   0.23608   0.24040   0.24267   0.24800
 Alpha virt. eigenvalues --    0.25198   0.25579   0.26104   0.26825   0.27253
 Alpha virt. eigenvalues --    0.28235   0.28337   0.29345   0.29481   0.29860
 Alpha virt. eigenvalues --    0.30295   0.30320   0.30595   0.31022   0.31298
 Alpha virt. eigenvalues --    0.31581   0.31711   0.32348   0.32704   0.33011
 Alpha virt. eigenvalues --    0.33497   0.34023   0.34400   0.34984   0.35281
 Alpha virt. eigenvalues --    0.35743   0.36314   0.36395   0.37556   0.38261
 Alpha virt. eigenvalues --    0.38505   0.39071   0.39419   0.40022   0.40244
 Alpha virt. eigenvalues --    0.41047   0.41670   0.42402   0.42813   0.43056
 Alpha virt. eigenvalues --    0.43177   0.43362   0.43836   0.44198   0.44824
 Alpha virt. eigenvalues --    0.44985   0.45069   0.45365   0.45474   0.45836
 Alpha virt. eigenvalues --    0.46175   0.46339   0.46614   0.46721   0.47205
 Alpha virt. eigenvalues --    0.47577   0.47848   0.48043   0.48284   0.48693
 Alpha virt. eigenvalues --    0.49092   0.49385   0.49644   0.49692   0.49933
 Alpha virt. eigenvalues --    0.50243   0.50752   0.50864   0.51379   0.51420
 Alpha virt. eigenvalues --    0.51947   0.52275   0.52339   0.52700   0.53417
 Alpha virt. eigenvalues --    0.53721   0.54267   0.54565   0.55341   0.55452
 Alpha virt. eigenvalues --    0.56136   0.56485   0.56761   0.57073   0.57545
 Alpha virt. eigenvalues --    0.58055   0.58197   0.58838   0.59209   0.59327
 Alpha virt. eigenvalues --    0.59746   0.60135   0.60831   0.62015   0.62130
 Alpha virt. eigenvalues --    0.62376   0.62821   0.63136   0.63330   0.63578
 Alpha virt. eigenvalues --    0.64107   0.64550   0.64779   0.65448   0.65564
 Alpha virt. eigenvalues --    0.65896   0.66281   0.66685   0.67178   0.67336
 Alpha virt. eigenvalues --    0.67590   0.67915   0.68230   0.68347   0.68479
 Alpha virt. eigenvalues --    0.68699   0.68964   0.69241   0.69368   0.69590
 Alpha virt. eigenvalues --    0.69988   0.70108   0.70313   0.70490   0.70868
 Alpha virt. eigenvalues --    0.71006   0.71081   0.71255   0.71348   0.71487
 Alpha virt. eigenvalues --    0.71718   0.71912   0.72021   0.72333   0.72429
 Alpha virt. eigenvalues --    0.72769   0.72828   0.73080   0.73159   0.73453
 Alpha virt. eigenvalues --    0.73648   0.74331   0.74618   0.74914   0.75103
 Alpha virt. eigenvalues --    0.75185   0.75380   0.75471   0.75808   0.75992
 Alpha virt. eigenvalues --    0.76292   0.76837   0.76883   0.77055   0.77391
 Alpha virt. eigenvalues --    0.77498   0.77589   0.77739   0.78116   0.78239
 Alpha virt. eigenvalues --    0.78310   0.78812   0.79265   0.79513   0.79788
 Alpha virt. eigenvalues --    0.79822   0.80196   0.80501   0.80722   0.81235
 Alpha virt. eigenvalues --    0.81474   0.81702   0.82228   0.82395   0.82965
 Alpha virt. eigenvalues --    0.83480   0.83547   0.83925   0.84578   0.84826
 Alpha virt. eigenvalues --    0.84980   0.85486   0.85669   0.86141   0.86391
 Alpha virt. eigenvalues --    0.86792   0.87090   0.87440   0.87833   0.88940
 Alpha virt. eigenvalues --    0.89275   0.89542   0.90054   0.90508   0.91002
 Alpha virt. eigenvalues --    0.91965   0.92313   0.92895   0.94017   0.94368
 Alpha virt. eigenvalues --    0.94834   0.95583   0.95913   0.96608   0.97307
 Alpha virt. eigenvalues --    0.97856   0.98691   0.99042   0.99568   1.00694
 Alpha virt. eigenvalues --    1.00896   1.02106   1.02959   1.03281   1.04068
 Alpha virt. eigenvalues --    1.05636   1.06484   1.06830   1.08076   1.08869
 Alpha virt. eigenvalues --    1.09910   1.10964   1.11144   1.12823   1.13480
 Alpha virt. eigenvalues --    1.13758   1.14726   1.15458   1.15540   1.16298
 Alpha virt. eigenvalues --    1.17783   1.18317   1.18872   1.20148   1.21016
 Alpha virt. eigenvalues --    1.22110   1.22879   1.24372   1.24874   1.25985
 Alpha virt. eigenvalues --    1.26635   1.26876   1.27091   1.27505   1.27987
 Alpha virt. eigenvalues --    1.28181   1.28765   1.29475   1.30004   1.31326
 Alpha virt. eigenvalues --    1.31956   1.32925   1.33534   1.34897   1.35370
 Alpha virt. eigenvalues --    1.36300   1.36865   1.37709   1.38201   1.38835
 Alpha virt. eigenvalues --    1.39189   1.39530   1.39928   1.40392   1.41066
 Alpha virt. eigenvalues --    1.42318   1.43809   1.44089   1.45622   1.46590
 Alpha virt. eigenvalues --    1.48113   1.49362   1.50133   1.50522   1.50891
 Alpha virt. eigenvalues --    1.50982   1.51280   1.51570   1.51700   1.52382
 Alpha virt. eigenvalues --    1.54248   1.55816   1.56077   1.57927   1.60371
 Alpha virt. eigenvalues --    1.61836   1.62632   1.62936   1.63763   1.65194
 Alpha virt. eigenvalues --    1.68576   1.69196   1.70898   1.72961   1.75425
 Alpha virt. eigenvalues --    1.75642   1.75940   1.77025   1.78549   1.79103
 Alpha virt. eigenvalues --    1.79369   1.79687   1.80059   1.80358   1.80716
 Alpha virt. eigenvalues --    1.81566   1.82084   1.82214   1.82780   1.83101
 Alpha virt. eigenvalues --    1.83412   1.86531   1.87497   1.88374   1.88508
 Alpha virt. eigenvalues --    1.88864   1.89107   1.89471   1.89705   1.90068
 Alpha virt. eigenvalues --    1.90556   1.90696   1.91077   1.91898   1.92422
 Alpha virt. eigenvalues --    1.92789   1.93683   1.93963   1.94599   1.94939
 Alpha virt. eigenvalues --    1.95207   1.96081   1.97032   1.98217   1.98328
 Alpha virt. eigenvalues --    1.99968   2.01111   2.02389   2.03194   2.03495
 Alpha virt. eigenvalues --    2.04257   2.04460   2.04930   2.05424   2.05842
 Alpha virt. eigenvalues --    2.07253   2.07385   2.08056   2.08333   2.08867
 Alpha virt. eigenvalues --    2.09190   2.09379   2.09528   2.10244   2.10918
 Alpha virt. eigenvalues --    2.11301   2.12252   2.12395   2.13635   2.14079
 Alpha virt. eigenvalues --    2.14901   2.15262   2.15435   2.15864   2.16423
 Alpha virt. eigenvalues --    2.16999   2.19109   2.20110   2.20811   2.21761
 Alpha virt. eigenvalues --    2.22436   2.23088   2.23200   2.23547   2.24383
 Alpha virt. eigenvalues --    2.25398   2.26422   2.27889   2.28756   2.29088
 Alpha virt. eigenvalues --    2.29509   2.29637   2.29948   2.30481   2.30833
 Alpha virt. eigenvalues --    2.31038   2.31154   2.31549   2.31632   2.31903
 Alpha virt. eigenvalues --    2.32492   2.32693   2.33222   2.33835   2.34682
 Alpha virt. eigenvalues --    2.35018   2.36119   2.36352   2.36976   2.39875
 Alpha virt. eigenvalues --    2.44455   2.44607   2.45156   2.45639   2.46142
 Alpha virt. eigenvalues --    2.47258   2.47782   2.49115   2.49365   2.50106
 Alpha virt. eigenvalues --    2.50699   2.50711   2.51573   2.51977   2.52901
 Alpha virt. eigenvalues --    2.53752   2.56212   2.57057   2.58956   2.59317
 Alpha virt. eigenvalues --    2.61334   2.63859   2.65075   2.65743   2.65996
 Alpha virt. eigenvalues --    2.66520   2.66595   2.66949   2.67298   2.67787
 Alpha virt. eigenvalues --    2.68378   2.69448   2.69513   2.70832   2.73584
 Alpha virt. eigenvalues --    2.73847   2.74826   2.75285   2.75872   2.76603
 Alpha virt. eigenvalues --    2.77349   2.78350   2.79656   2.79942   2.80222
 Alpha virt. eigenvalues --    2.80787   2.83744   2.84816   2.88927   2.89109
 Alpha virt. eigenvalues --    2.92106   2.93734   2.99405   3.00432   3.02012
 Alpha virt. eigenvalues --    3.03899   3.08538   3.09966   3.34866   3.35989
 Alpha virt. eigenvalues --    3.37616   3.38717
          Condensed to atoms (all electrons):
 Mulliken charges:
               1
     1  P    0.409586
     2  C   -0.138461
     3  C   -0.111899
     4  C   -0.098184
     5  C   -0.090332
     6  C   -0.090141
     7  C   -0.117166
     8  C   -0.124366
     9  C   -0.167690
    10  C   -0.090270
    11  C   -0.100312
    12  C   -0.083396
    13  C   -0.147635
    14  P    0.335780
    15  C   -0.329304
    16  C   -0.308669
    17  C   -0.153195
    18  C   -0.023231
    19  C   -0.073073
    20  C   -0.036286
    21  C   -0.108075
    22  H    0.111466
    23  H    0.118224
    24  H    0.138384
    25  H    0.112835
    26  H    0.158929
    27  H    0.136286
    28  H    0.155179
    29  H    0.142293
    30  H    0.118791
    31  C   -0.177226
    32  C    0.017339
    33  C   -0.186786
    34  C   -0.119826
    35  C   -0.166285
    36  C    0.015904
    37  H    0.101147
    38  H    0.114336
    39  C   -0.191977
    40  C    0.021768
    41  C   -0.199993
    42  C   -0.068112
    43  C   -0.203631
    44  C    0.023846
    45  H    0.098446
    46  H    0.076590
    47  Fe  -0.219338
    48  C   -0.083848
    49  C   -0.068646
    50  C   -0.088323
    51  C   -0.103936
    52  C   -0.089956
    53  H    0.112643
    54  H    0.107339
    55  H    0.140641
    56  H    0.109509
    57  H    0.102164
    58  H    0.093513
    59  H    0.065801
    60  H    0.061105
    61  C   -0.291666
    62  H    0.138885
    63  H    0.129087
    64  H    0.138005
    65  C   -0.304188
    66  H    0.132460
    67  H    0.146995
    68  H    0.143099
    69  C   -0.292501
    70  H    0.130724
    71  H    0.145607
    72  H    0.128607
    73  C   -0.292086
    74  H    0.135628
    75  H    0.125708
    76  H    0.140650
    77  H    0.106667
    78  H    0.098823
    79  H    0.114205
    80  H    0.091994
    81  H    0.094144
    82  H    0.098290
    83  H    0.100584
 Sum of Mulliken charges =  -0.00000
 Mulliken charges with hydrogens summed into heavy atoms:
               1
     1  P    0.409586
     2  C   -0.138461
     3  C   -0.000433
     4  C    0.002400
     5  C    0.011832
     6  C    0.008150
     7  C    0.001059
     8  C   -0.124366
     9  C   -0.029306
    10  C    0.001724
    11  C   -0.006799
    12  C    0.010748
    13  C   -0.034800
    14  P    0.335780
    15  C   -0.170375
    16  C    0.125089
    17  C   -0.153195
    18  C   -0.023231
    19  C    0.025750
    20  C    0.070382
    21  C    0.010715
    31  C   -0.111424
    32  C    0.017339
    33  C   -0.085639
    34  C   -0.119826
    35  C   -0.051949
    36  C    0.015904
    39  C   -0.130872
    40  C    0.021768
    41  C   -0.101546
    42  C   -0.068112
    43  C   -0.127041
    44  C    0.023846
    47  Fe  -0.219338
    48  C    0.028795
    49  C    0.045559
    50  C    0.019016
    51  C    0.036705
    52  C    0.019553
    61  C    0.114311
    65  C    0.118367
    69  C    0.112438
    73  C    0.109900
 Electronic spatial extent (au):  <R**2>=          25176.5153
 Charge=             -0.0000 electrons
 Dipole moment (field-independent basis, Debye):
    X=              0.8089    Y=             -1.2024    Z=              1.3617  Tot=              1.9886
 Quadrupole moment (field-independent basis, Debye-Ang):
   XX=           -266.6745   YY=           -268.7621   ZZ=           -253.6043
   XY=             10.7550   XZ=             -6.2701   YZ=              5.3290
 Traceless Quadrupole moment (field-independent basis, Debye-Ang):
   XX=             -3.6609   YY=             -5.7485   ZZ=              9.4093
   XY=             10.7550   XZ=             -6.2701   YZ=              5.3290
 Octapole moment (field-independent basis, Debye-Ang**2):
  XXX=            663.2574  YYY=            392.9580  ZZZ=            -41.7262  XYY=            223.9505
  XXY=            107.9092  XXZ=            -11.0924  XZZ=            225.6122  YZZ=             94.6696
  YYZ=             -0.9051  XYZ=            -31.7506
 Hexadecapole moment (field-independent basis, Debye-Ang**3):
 XXXX=         -16290.9694 YYYY=          -8877.1780 ZZZZ=          -8253.7781 XXXY=          -1419.0336
 XXXZ=            966.2426 YYYX=          -1539.5170 YYYZ=           -610.6696 ZZZX=            745.6065
 ZZZY=           -485.7419 XXYY=          -4417.7338 XXZZ=          -4000.4379 YYZZ=          -2837.7478
 XXYZ=           -185.9721 YYXZ=            397.3691 ZZXY=           -533.6910
 N-N= 6.362002390379D+03 E-N=-2.093134626653D+04  KE= 3.471204136413D+03
 No NMR shielding tensors so no spin-rotation constants.
 Leave Link  601 at Fri Sep 29 19:34:14 2023, MaxMem=  4026531840 cpu:               4.1 elap:               0.4
 (Enter /sw/arch/RHEL8/EB_production/2022/software/Gaussian/g16.c02/l607.exe)
 ******************************Gaussian NBO Version 3.1******************************
             N A T U R A L   A T O M I C   O R B I T A L   A N D
          N A T U R A L   B O N D   O R B I T A L   A N A L Y S I S
 ******************************Gaussian NBO Version 3.1******************************
       /RESON  / : Allow strongly delocalized NBO set

 Analyzing the SCF density

 Job title: Cisa                                                            

 Storage needed:   1491450 in NPA,   1969013 in NBO (4026495569 available)


 NATURAL POPULATIONS:  Natural atomic orbital occupancies 
                                                          
   NAO  Atom  No  lang   Type(AO)    Occupancy      Energy
 ----------------------------------------------------------
     1    P    1  S      Cor( 1S)     1.99999     -76.24680
     2    P    1  S      Cor( 2S)     1.99855      -7.31566
     3    P    1  S      Val( 3S)     1.24587      -0.37459
     4    P    1  S      Ryd( 4S)     0.00481       0.73669
     5    P    1  px     Cor( 2p)     1.99984      -4.72755
     6    P    1  px     Val( 3p)     1.40243      -0.10532
     7    P    1  px     Ryd( 4p)     0.00706       0.89960
     8    P    1  py     Cor( 2p)     1.99975      -4.72991
     9    P    1  py     Val( 3p)     0.69547      -0.02482
    10    P    1  py     Ryd( 4p)     0.00433       0.79692
    11    P    1  pz     Cor( 2p)     1.99974      -4.72960
    12    P    1  pz     Val( 3p)     0.72823      -0.02400
    13    P    1  pz     Ryd( 4p)     0.00551       0.79106
    14    P    1  dxy    Ryd( 3d)     0.00530       0.96964
    15    P    1  dxz    Ryd( 3d)     0.00532       1.11002
    16    P    1  dyz    Ryd( 3d)     0.00568       1.16487
    17    P    1  dx2y2  Ryd( 3d)     0.00372       1.04232
    18    P    1  dz2    Ryd( 3d)     0.00458       1.05423
 
    19    C    2  S      Cor( 1S)     1.99885     -10.11021
    20    C    2  S      Val( 2S)     0.94141      -0.17745
    21    C    2  S      Ryd( 3S)     0.00444       0.71188
    22    C    2  px     Val( 2p)     1.14162      -0.09974
    23    C    2  px     Ryd( 3p)     0.00651       0.91931
    24    C    2  py     Val( 2p)     1.07595      -0.11907
    25    C    2  py     Ryd( 3p)     0.00294       0.78534
    26    C    2  pz     Val( 2p)     1.16450      -0.12790
    27    C    2  pz     Ryd( 3p)     0.00919       0.98752
    28    C    2  dxy    Ryd( 3d)     0.00060       2.02439
    29    C    2  dxz    Ryd( 3d)     0.00118       2.22535
    30    C    2  dyz    Ryd( 3d)     0.00057       2.10590
    31    C    2  dx2y2  Ryd( 3d)     0.00064       2.24549
    32    C    2  dz2    Ryd( 3d)     0.00079       2.15604
 
    33    C    3  S      Cor( 1S)     1.99887     -10.10572
    34    C    3  S      Val( 2S)     0.93338      -0.13642
    35    C    3  S      Ryd( 3S)     0.00145       0.62138
    36    C    3  px     Val( 2p)     1.19965      -0.06692
    37    C    3  px     Ryd( 3p)     0.00826       1.04666
    38    C    3  py     Val( 2p)     0.99989      -0.09624
    39    C    3  py     Ryd( 3p)     0.00165       0.62348
    40    C    3  pz     Val( 2p)     1.05412      -0.05772
    41    C    3  pz     Ryd( 3p)     0.00358       0.69119
    42    C    3  dxy    Ryd( 3d)     0.00048       1.95039
    43    C    3  dxz    Ryd( 3d)     0.00062       2.27736
    44    C    3  dyz    Ryd( 3d)     0.00053       2.17965
    45    C    3  dx2y2  Ryd( 3d)     0.00067       2.08551
    46    C    3  dz2    Ryd( 3d)     0.00069       2.18718
 
    47    C    4  S      Cor( 1S)     1.99893     -10.10966
    48    C    4  S      Val( 2S)     0.94220      -0.14401
    49    C    4  S      Ryd( 3S)     0.00110       0.60794
    50    C    4  px     Val( 2p)     1.09380      -0.05008
    51    C    4  px     Ryd( 3p)     0.00461       0.72786
    52    C    4  py     Val( 2p)     1.04251      -0.10061
    53    C    4  py     Ryd( 3p)     0.00206       0.67859
    54    C    4  pz     Val( 2p)     1.13122      -0.06749
    55    C    4  pz     Ryd( 3p)     0.00498       0.87843
    56    C    4  dxy    Ryd( 3d)     0.00063       2.01624
    57    C    4  dxz    Ryd( 3d)     0.00074       2.26680
    58    C    4  dyz    Ryd( 3d)     0.00059       2.02851
    59    C    4  dx2y2  Ryd( 3d)     0.00051       2.21045
    60    C    4  dz2    Ryd( 3d)     0.00061       2.08673
 
    61    C    5  S      Cor( 1S)     1.99895     -10.11216
    62    C    5  S      Val( 2S)     0.94544      -0.14774
    63    C    5  S      Ryd( 3S)     0.00123       0.59198
    64    C    5  px     Val( 2p)     1.10893      -0.05246
    65    C    5  px     Ryd( 3p)     0.00476       0.77133
    66    C    5  py     Val( 2p)     1.01587      -0.09831
    67    C    5  py     Ryd( 3p)     0.00182       0.62720
    68    C    5  pz     Val( 2p)     1.12909      -0.06864
    69    C    5  pz     Ryd( 3p)     0.00473       0.87363
    70    C    5  dxy    Ryd( 3d)     0.00060       2.01994
    71    C    5  dxz    Ryd( 3d)     0.00083       2.23089
    72    C    5  dyz    Ryd( 3d)     0.00050       2.05796
    73    C    5  dx2y2  Ryd( 3d)     0.00055       2.19710
    74    C    5  dz2    Ryd( 3d)     0.00060       2.08315
 
    75    C    6  S      Cor( 1S)     1.99893     -10.10833
    76    C    6  S      Val( 2S)     0.94135      -0.14317
    77    C    6  S      Ryd( 3S)     0.00125       0.60615
    78    C    6  px     Val( 2p)     1.18874      -0.06355
    79    C    6  px     Ryd( 3p)     0.00645       1.02735
    80    C    6  py     Val( 2p)     1.01750      -0.09663
    81    C    6  py     Ryd( 3p)     0.00169       0.62074
    82    C    6  pz     Val( 2p)     1.05945      -0.05660
    83    C    6  pz     Ryd( 3p)     0.00369       0.64862
    84    C    6  dxy    Ryd( 3d)     0.00049       1.93211
    85    C    6  dxz    Ryd( 3d)     0.00060       2.25931
    86    C    6  dyz    Ryd( 3d)     0.00055       2.18018
    87    C    6  dx2y2  Ryd( 3d)     0.00071       2.07440
    88    C    6  dz2    Ryd( 3d)     0.00072       2.18188
 
    89    C    7  S      Cor( 1S)     1.99890     -10.10338
    90    C    7  S      Val( 2S)     0.93325      -0.13636
    91    C    7  S      Ryd( 3S)     0.00270       0.68606
    92    C    7  px     Val( 2p)     1.10083      -0.05303
    93    C    7  px     Ryd( 3p)     0.00498       0.75880
    94    C    7  py     Val( 2p)     1.02170      -0.09917
    95    C    7  py     Ryd( 3p)     0.00310       0.77123
    96    C    7  pz     Val( 2p)     1.13475      -0.07035
    97    C    7  pz     Ryd( 3p)     0.00636       0.90949
    98    C    7  dxy    Ryd( 3d)     0.00057       2.04187
    99    C    7  dxz    Ryd( 3d)     0.00074       2.31467
   100    C    7  dyz    Ryd( 3d)     0.00060       2.05079
   101    C    7  dx2y2  Ryd( 3d)     0.00049       2.22723
   102    C    7  dz2    Ryd( 3d)     0.00063       2.10460
 
   103    C    8  S      Cor( 1S)     1.99891     -10.10823
   104    C    8  S      Val( 2S)     0.94178      -0.17083
   105    C    8  S      Ryd( 3S)     0.00403       0.64583
   106    C    8  px     Val( 2p)     1.05693      -0.11467
   107    C    8  px     Ryd( 3p)     0.00213       0.73049
   108    C    8  py     Val( 2p)     1.20138      -0.13561
   109    C    8  py     Ryd( 3p)     0.00980       1.05536
   110    C    8  pz     Val( 2p)     1.12065      -0.08149
   111    C    8  pz     Ryd( 3p)     0.00449       0.91543
   112    C    8  dxy    Ryd( 3d)     0.00095       2.00687
   113    C    8  dxz    Ryd( 3d)     0.00069       2.06636
   114    C    8  dyz    Ryd( 3d)     0.00085       2.35130
   115    C    8  dx2y2  Ryd( 3d)     0.00071       2.05220
   116    C    8  dz2    Ryd( 3d)     0.00075       2.29035
 
   117    C    9  S      Cor( 1S)     1.99890     -10.09459
   118    C    9  S      Val( 2S)     0.92361      -0.12314
   119    C    9  S      Ryd( 3S)     0.00201       0.65217
   120    C    9  px     Val( 2p)     1.03653      -0.09528
   121    C    9  px     Ryd( 3p)     0.00247       0.72110
   122    C    9  py     Val( 2p)     1.13043      -0.05270
   123    C    9  py     Ryd( 3p)     0.00555       0.91832
   124    C    9  pz     Val( 2p)     1.12160      -0.04931
   125    C    9  pz     Ryd( 3p)     0.00522       0.86210
   126    C    9  dxy    Ryd( 3d)     0.00060       1.99312
   127    C    9  dxz    Ryd( 3d)     0.00052       2.01072
   128    C    9  dyz    Ryd( 3d)     0.00079       2.31762
   129    C    9  dx2y2  Ryd( 3d)     0.00049       2.14134
   130    C    9  dz2    Ryd( 3d)     0.00058       2.29557
 
   131    C   10  S      Cor( 1S)     1.99893     -10.09974
   132    C   10  S      Val( 2S)     0.93929      -0.13186
   133    C   10  S      Ryd( 3S)     0.00119       0.59614
   134    C   10  px     Val( 2p)     1.01192      -0.09174
   135    C   10  px     Ryd( 3p)     0.00136       0.61837
   136    C   10  py     Val( 2p)     1.07582      -0.03831
   137    C   10  py     Ryd( 3p)     0.00398       0.69016
   138    C   10  pz     Val( 2p)     1.17267      -0.05538
   139    C   10  pz     Ryd( 3p)     0.00622       1.00206
   140    C   10  dxy    Ryd( 3d)     0.00064       2.07289
   141    C   10  dxz    Ryd( 3d)     0.00045       1.93604
   142    C   10  dyz    Ryd( 3d)     0.00071       2.30402
   143    C   10  dx2y2  Ryd( 3d)     0.00055       2.20426
   144    C   10  dz2    Ryd( 3d)     0.00078       2.14937
 
   145    C   11  S      Cor( 1S)     1.99895     -10.09795
   146    C   11  S      Val( 2S)     0.94251      -0.13380
   147    C   11  S      Ryd( 3S)     0.00131       0.58343
   148    C   11  px     Val( 2p)     1.02494      -0.09119
   149    C   11  px     Ryd( 3p)     0.00172       0.60872
   150    C   11  py     Val( 2p)     1.17156      -0.05331
   151    C   11  py     Ryd( 3p)     0.00572       0.99387
   152    C   11  pz     Val( 2p)     1.07861      -0.03934
   153    C   11  pz     Ryd( 3p)     0.00413       0.68880
   154    C   11  dxy    Ryd( 3d)     0.00046       1.93837
   155    C   11  dxz    Ryd( 3d)     0.00057       2.06032
   156    C   11  dyz    Ryd( 3d)     0.00071       2.29952
   157    C   11  dx2y2  Ryd( 3d)     0.00063       2.04253
   158    C   11  dz2    Ryd( 3d)     0.00067       2.30287
 
   159    C   12  S      Cor( 1S)     1.99894     -10.09944
   160    C   12  S      Val( 2S)     0.94063      -0.13219
   161    C   12  S      Ryd( 3S)     0.00119       0.59329
   162    C   12  px     Val( 2p)     1.02142      -0.09261
   163    C   12  px     Ryd( 3p)     0.00165       0.65054
   164    C   12  py     Val( 2p)     1.11533      -0.04380
   165    C   12  py     Ryd( 3p)     0.00501       0.81870
   166    C   12  pz     Val( 2p)     1.11944      -0.04627
   167    C   12  pz     Ryd( 3p)     0.00493       0.82780
   168    C   12  dxy    Ryd( 3d)     0.00062       1.98423
   169    C   12  dxz    Ryd( 3d)     0.00061       1.98222
   170    C   12  dyz    Ryd( 3d)     0.00082       2.30072
   171    C   12  dx2y2  Ryd( 3d)     0.00048       2.12802
   172    C   12  dz2    Ryd( 3d)     0.00060       2.25745
 
   173    C   13  S      Cor( 1S)     1.99890     -10.09457
   174    C   13  S      Val( 2S)     0.92599      -0.12407
   175    C   13  S      Ryd( 3S)     0.00184       0.60682
   176    C   13  px     Val( 2p)     1.01503      -0.09288
   177    C   13  px     Ryd( 3p)     0.00168       0.64186
   178    C   13  py     Val( 2p)     1.08309      -0.04463
   179    C   13  py     Ryd( 3p)     0.00422       0.77392
   180    C   13  pz     Val( 2p)     1.18321      -0.05736
   181    C   13  pz     Ryd( 3p)     0.00696       1.00556
   182    C   13  dxy    Ryd( 3d)     0.00056       2.06343
   183    C   13  dxz    Ryd( 3d)     0.00044       1.94621
   184    C   13  dyz    Ryd( 3d)     0.00071       2.32149
   185    C   13  dx2y2  Ryd( 3d)     0.00053       2.21226
   186    C   13  dz2    Ryd( 3d)     0.00074       2.17828
 
   187    P   14  S      Cor( 1S)     1.99999     -76.30617
   188    P   14  S      Cor( 2S)     1.99872      -7.24321
   189    P   14  S      Val( 3S)     1.28105      -0.38314
   190    P   14  S      Ryd( 4S)     0.00491       0.72758
   191    P   14  px     Cor( 2p)     1.99977      -4.71957
   192    P   14  px     Val( 3p)     0.76026      -0.02897
   193    P   14  px     Ryd( 4p)     0.00424       0.84611
   194    P   14  py     Cor( 2p)     1.99981      -4.71803
   195    P   14  py     Val( 3p)     1.15447      -0.07570
   196    P   14  py     Ryd( 4p)     0.00626       0.85768
   197    P   14  pz     Cor( 2p)     1.99979      -4.71869
   198    P   14  pz     Val( 3p)     0.91824      -0.04790
   199    P   14  pz     Ryd( 4p)     0.00451       0.82318
   200    P   14  dxy    Ryd( 3d)     0.00786       1.11846
   201    P   14  dxz    Ryd( 3d)     0.00515       0.99635
   202    P   14  dyz    Ryd( 3d)     0.00258       1.03641
   203    P   14  dx2y2  Ryd( 3d)     0.00243       0.99292
   204    P   14  dz2    Ryd( 3d)     0.00636       1.09187
 
   205    C   15  S      Cor( 1S)     1.99900     -10.11493
   206    C   15  S      Val( 2S)     0.98766      -0.22448
   207    C   15  S      Ryd( 3S)     0.00538       1.01006
   208    C   15  px     Val( 2p)     1.15804      -0.12703
   209    C   15  px     Ryd( 3p)     0.00363       0.76291
   210    C   15  py     Val( 2p)     1.13176      -0.12485
   211    C   15  py     Ryd( 3p)     0.00532       0.76149
   212    C   15  pz     Val( 2p)     1.21167      -0.09782
   213    C   15  pz     Ryd( 3p)     0.00384       0.80769
   214    C   15  dxy    Ryd( 3d)     0.00125       2.19318
   215    C   15  dxz    Ryd( 3d)     0.00070       2.18856
   216    C   15  dyz    Ryd( 3d)     0.00066       2.09168
   217    C   15  dx2y2  Ryd( 3d)     0.00077       2.07132
   218    C   15  dz2    Ryd( 3d)     0.00110       2.12849
 
   219    C   16  S      Cor( 1S)     1.99926     -10.09431
   220    C   16  S      Val( 2S)     1.06839      -0.22207
   221    C   16  S      Ryd( 3S)     0.00097       0.95640
   222    C   16  px     Val( 2p)     1.22314      -0.07457
   223    C   16  px     Ryd( 3p)     0.00349       0.74339
   224    C   16  py     Val( 2p)     1.11219      -0.06723
   225    C   16  py     Ryd( 3p)     0.00258       0.62779
   226    C   16  pz     Val( 2p)     1.21273      -0.07377
   227    C   16  pz     Ryd( 3p)     0.00272       0.66183
   228    C   16  dxy    Ryd( 3d)     0.00092       2.17048
   229    C   16  dxz    Ryd( 3d)     0.00056       2.08096
   230    C   16  dyz    Ryd( 3d)     0.00036       1.99475
   231    C   16  dx2y2  Ryd( 3d)     0.00029       2.00776
   232    C   16  dz2    Ryd( 3d)     0.00073       2.09492
 
   233    C   17  S      Cor( 1S)     1.99857     -10.10128
   234    C   17  S      Val( 2S)     0.93305      -0.18652
   235    C   17  S      Ryd( 3S)     0.00454       0.92867
   236    C   17  px     Val( 2p)     1.09097      -0.11485
   237    C   17  px     Ryd( 3p)     0.00684       0.83301
   238    C   17  py     Val( 2p)     1.12364      -0.14220
   239    C   17  py     Ryd( 3p)     0.00779       0.97299
   240    C   17  pz     Val( 2p)     1.21383      -0.14883
   241    C   17  pz     Ryd( 3p)     0.00770       0.98297
   242    C   17  dxy    Ryd( 3d)     0.00071       2.28906
   243    C   17  dxz    Ryd( 3d)     0.00093       2.27741
   244    C   17  dyz    Ryd( 3d)     0.00113       2.17982
   245    C   17  dx2y2  Ryd( 3d)     0.00103       2.05568
   246    C   17  dz2    Ryd( 3d)     0.00074       2.17527
 
   247    C   18  S      Cor( 1S)     1.99858     -10.10345
   248    C   18  S      Val( 2S)     0.83029      -0.11369
   249    C   18  S      Ryd( 3S)     0.00521       0.97068
   250    C   18  px     Val( 2p)     1.02638      -0.11070
   251    C   18  px     Ryd( 3p)     0.00987       1.06832
   252    C   18  py     Val( 2p)     1.08215      -0.08830
   253    C   18  py     Ryd( 3p)     0.00602       0.93844
   254    C   18  pz     Val( 2p)     1.08793      -0.08276
   255    C   18  pz     Ryd( 3p)     0.00688       0.93439
   256    C   18  dxy    Ryd( 3d)     0.00091       2.30425
   257    C   18  dxz    Ryd( 3d)     0.00098       2.24292
   258    C   18  dyz    Ryd( 3d)     0.00068       2.23944
   259    C   18  dx2y2  Ryd( 3d)     0.00085       2.17114
   260    C   18  dz2    Ryd( 3d)     0.00109       2.23843
 
   261    C   19  S      Cor( 1S)     1.99864     -10.09576
   262    C   19  S      Val( 2S)     0.93092      -0.14599
   263    C   19  S      Ryd( 3S)     0.00313       0.82505
   264    C   19  px     Val( 2p)     1.03643      -0.08728
   265    C   19  px     Ryd( 3p)     0.00493       0.71008
   266    C   19  py     Val( 2p)     1.17630      -0.08053
   267    C   19  py     Ryd( 3p)     0.00398       0.94609
   268    C   19  pz     Val( 2p)     1.05374      -0.07229
[...]
                                                    345(r),338(r),495(r),502(r)
                                                    507(r),681(r),517(r),174(r)
                                                    498(r),679(r),686(r)
   170. LP*(   6)Fe  47                  0.24043     0.52053  687(r),679(r),174(r),164(r)
                                                    682(r),646(r),685(r),680(r)
                                                    686(r),522(r),644(r),639(r)
                                                    688(r),648(r),531(r),513(r)
                                                    645(r),683(r),348(r),329(r)
                                                    172(g),647(r),493(r),339(r)
                                                    357(r),338(r),634(r),502(r)
                                                    529(r),509(r),321(r),356(r)
                                                    504(r),495(r),520(r),350(r)
                                                    500(r),173(g),642(r),511(r)
                                                    621(r),491(r),527(r),538(r)
                                                    526(r),366(r),517(r),535(r)
                                                    635(r),363(r),368(r),519(r)
                                                    336(r),507(r),518(r),327(r)
                                                    601(r),353(r),344(r),498(r)
                                                    346(r),341(r),499(r),320(r)
                                                    638(r),354(r),322(r),641(r)
                                                    345(r),402(r),333(r),599(r)
                                                    508(r),534(r),337(r)
   171. LP*(   7)Fe  47                  0.20979     0.28199  601(r),678(r),174(r),684(r)
                                                    641(r),513(r),599(r),531(r)
                                                    631(r),648(r),685(r),495(r)
                                                    688(r),372(r),593(r),645(r)
                                                    536(r),537(r),630(r),369(r)
                                                    680(r),355(r),304(r),504(r)
                                                    358(r),337(r),341(r),509(r)
                                                    331(r),636(r),643(r),632(r)
                                                    677(r),539(r),230(r),517(r)
                                                    594(r),527(r),365(r),363(r)
                                                    634(r),682(r),340(r),640(r)
                                                    491(r),329(r),686(r),336(r)
                                                    164(r),600(r),683(r)
   172. LP*(   8)Fe  47                  0.20457     0.28974  164(r),643(r),601(r),641(r)
                                                    684(r),599(r),170(g),632(r)
                                                    504(r),495(r),687(r),647(r)
                                                    350(r),594(r),592(r),522(r)
                                                    186(r),630(r),682(r),536(r)
                                                    368(r),631(r),688(r),346(r)
                                                    322(r),538(r),635(r),331(r)
                                                    519(r),319(r),304(r),680(r)
                                                    507(r),327(r),642(r),678(r)
                                                    645(r),498(r),518(r),174(r)
                                                    634(r),502(r),329(r),646(r)
                                                    640(r),493(r),644(r),508(r)
                                                    353(r),539(r),336(r)
   173. LP*(   9)Fe  47                  0.13029     0.23224  486(g),630(r),164(r),174(r)
                                                    599(r),635(r),601(r),336(r)
                                                    327(r),348(r),363(r),531(r)
                                                    526(r),522(r),535(r),636(r)
                                                    339(r),632(r),357(r),517(r)
                                                    354(r),350(r),321(r),329(r)
                                                    345(r),513(r),507(r),647(r)
                                                    338(r),344(r),621(r),356(r)
                                                    495(r),353(r)
   485. RY*(   1)Fe  47                  0.00448     0.60695   
   486. RY*(   2)Fe  47                  0.00059     0.87558   
   487. RY*(   3)Fe  47                  0.00022     1.41639   
   488. RY*(   4)Fe  47                  0.00014     1.42509   
   489. RY*(   5)Fe  47                  0.00005     1.31055   
   490. RY*(   6)Fe  47                  0.00003     1.33016   
       -------------------------------
              Total Lewis   23.51937  ( 90.5017%)
        Valence non-Lewis    2.46288  (  9.4771%)
        Rydberg non-Lewis    0.00551  (  0.0212%)
       -------------------------------
            Total unit  2   25.98777  (100.0000%)
           Charge unit  2    0.01223
 
 Molecular unit  3  (C5H5)
    79. BD (   1) C  48 - C  49          1.96808    -0.64173  170(r),172(r),169(r),685(v)
                                                    688(v),173(r),510(v),528(v)
                                                    680(g),682(g),681(g),679(g)
                                                    527(v),509(v),168(r),164(r)
                                                    321(r),171(r)
    80. BD (   2) C  48 - C  49          1.52769    -0.28435  174(v),169(r),172(r),170(r)
                                                    173(r),164(r),684(v),168(r)
                                                    487(r),681(g),688(v),685(v)
                                                    493(g),486(r),171(r),643(r)
                                                    641(r),488(r),346(r)
    81. BD (   1) C  48 - C  52          1.95492    -0.65126  174(g),170(r),171(r),173(r)
                                                    682(v),687(v),168(r),169(r)
                                                    172(r),519(v),677(g),686(g)
                                                    688(g),501(v),680(g),500(v)
                                                    164(r),331(r)
    82. BD (   1) C  48 - H  53          1.98096    -0.53161  172(r),686(v),681(v),171(r)
                                                    170(r),677(g),173(r),679(g)
                                                    485(r)
    83. BD (   1) C  49 - C  50          1.95442    -0.66665  170(r),168(r),171(r),172(r)
                                                    173(r),680(v),687(v),677(g)
                                                    683(g),518(v),685(g),682(g)
                                                    491(v),492(v),164(r),329(r)
    84. BD (   1) C  49 - H  79          1.98078    -0.53114  172(r),683(v),679(v),170(r)
                                                    677(g),681(g),173(r),171(r)
                                                    511(v),485(r)
    85. BD (   1) C  50 - C  51          1.96647    -0.63772  170(r),169(r),173(r),688(v)
                                                    682(v),171(r),501(v),528(v)
                                                    687(g),685(g),681(g),686(g)
                                                    168(r),231(r),164(r),172(r)
                                                    222(r)
    86. BD (   2) C  50 - C  51          1.52774    -0.27867  174(v),169(r),170(r),173(r)
                                                    171(r),678(v),168(r),164(r)
                                                    172(r),487(r),681(g),688(v)
                                                    682(v),486(r),643(r),613(r)
                                                    485(r),231(r),321(r),186(r)
                                                    601(r),331(r),488(r),490(r)
                                                    324(r)
    87. BD (   1) C  50 - H  54          1.98028    -0.52918  171(r),677(v),686(v),170(r)
                                                    683(g),173(r),681(g),231(r)
                                                    485(r),613(r)
    88. BD (   1) C  51 - C  52          1.95558    -0.65085  174(g),170(r),173(r),685(v)
                                                    680(v),168(r),169(r),492(v)
                                                    683(g),679(g),688(g),510(v)
                                                    687(g),172(r),171(r),164(r)
                                                    348(r),368(r)
    89. BD (   1) C  51 - H  55          1.98023    -0.52589  170(r),679(v),681(v),172(r)
                                                    173(r),683(g),686(g),511(v)
                                                    171(r),485(r),186(r),169(r)
    90. BD (   1) C  52 - H  56          1.98067    -0.53143  683(v),170(r),677(v),171(r)
                                                    174(g),173(r),686(g),679(g)
                                                    485(r),172(r),369(r),636(r)
   153. CR (   1) C  48                  1.99865   -10.10366  170(r),172(r),173(r),528(v)
                                                    501(v),171(r),174(v),688(v)
                                                    682(v),536(v),686(v),169(r)
                                                    486(r)
   154. CR (   1) C  49                  1.99865   -10.10306  172(r),170(r),173(r),492(v)
                                                    510(v),685(v),680(v),594(v)
                                                    171(r),683(v),168(r),486(r)
                                                    169(r)
   155. CR (   1) C  50                  1.99867   -10.10042  170(r),171(r),173(r),501(v)
                                                    519(v),687(v),682(v),537(v)
                                                    677(v),172(r),168(r),486(r)
   156. CR (   1) C  51                  1.99868   -10.09860  170(r),173(r),510(v),528(v)
                                                    172(r),174(v),538(v),688(v)
                                                    685(v),679(v),169(r),171(r)
                                                    486(r)
   157. CR (   1) C  52                  1.99868   -10.10198  170(r),174(g),173(r),171(r)
                                                    492(v),687(v),680(v),539(v)
                                                    519(v),518(v),683(v),677(v)
                                                    686(g),168(r),486(r)
   174. LP (   1) C  52                  0.98995    -0.12301  168(r),164(r),684(v),678(v)
                                                    170(r),171(r),686(g),173(r)
                                                    679(g),687(v),527(g),529(g)
                                                    680(v),519(v),521(v),494(v)
                                                    488(r),492(v),172(r),643(r)
                                                    490(r),489(r),369(r),169(r)
                                                    321(r),486(r),485(r)
   491. RY*(   1) C  48                  0.00391     0.89408   
   492. RY*(   2) C  48                  0.00364     0.69185   
   493. RY*(   3) C  48                  0.00260     1.13987   
   494. RY*(   4) C  48                  0.00132     1.87633   
   495. RY*(   5) C  48                  0.00093     0.72851   
   496. RY*(   6) C  48                  0.00021     1.95912   
   497. RY*(   7) C  48                  0.00010     2.34265   
   498. RY*(   8) C  48                  0.00006     2.13767   
   499. RY*(   9) C  48                  0.00005     2.09461   
   500. RY*(   1) C  49                  0.00388     0.90174   
   501. RY*(   2) C  49                  0.00366     0.64789   
   502. RY*(   3) C  49                  0.00269     1.19170   
   503. RY*(   4) C  49                  0.00132     1.88325   
   504. RY*(   5) C  49                  0.00092     0.71148   
   505. RY*(   6) C  49                  0.00020     1.96457   
   506. RY*(   7) C  49                  0.00010     2.34324   
   507. RY*(   8) C  49                  0.00005     2.15092   
   508. RY*(   9) C  49                  0.00005     2.07457   
   509. RY*(   1) C  50                  0.00393     0.85835   
   510. RY*(   2) C  50                  0.00370     0.70192   
   511. RY*(   3) C  50                  0.00268     1.30161   
   512. RY*(   4) C  50                  0.00130     1.88845   
   513. RY*(   5) C  50                  0.00092     0.70184   
   514. RY*(   6) C  50                  0.00020     1.99453   
   515. RY*(   7) C  50                  0.00011     2.36845   
   516. RY*(   8) C  50                  0.00006     2.02166   
   517. RY*(   9) C  50                  0.00005     2.20516   
   518. RY*(   1) C  51                  0.00424     0.88790   
   519. RY*(   2) C  51                  0.00401     0.75131   
   520. RY*(   3) C  51                  0.00258     1.27299   
   521. RY*(   4) C  51                  0.00132     1.88706   
   522. RY*(   5) C  51                  0.00100     0.71478   
   523. RY*(   6) C  51                  0.00020     2.00334   
   524. RY*(   7) C  51                  0.00011     2.11126   
   525. RY*(   8) C  51                  0.00011     2.34143   
   526. RY*(   9) C  51                  0.00005     2.18127   
   527. RY*(   1) C  52                  0.00409     0.91429   
   528. RY*(   2) C  52                  0.00363     0.66607   
   529. RY*(   3) C  52                  0.00255     1.20786   
   530. RY*(   4) C  52                  0.00109     1.90093   
   531. RY*(   5) C  52                  0.00093     0.70780   
   532. RY*(   6) C  52                  0.00020     1.97351   
   533. RY*(   7) C  52                  0.00010     2.35351   
   534. RY*(   8) C  52                  0.00008     2.08919   
   535. RY*(   9) C  52                  0.00005     2.16057   
   536. RY*(   1) H  53                  0.00117     0.35397   
   537. RY*(   1) H  54                  0.00146     0.40509   
   538. RY*(   1) H  55                  0.00351     0.53538   
   539. RY*(   1) H  56                  0.00146     0.38226   
   594. RY*(   1) H  79                  0.00114     0.35702   
   677. BD*(   1) C  48 - C  49          0.03115     0.51762   
   678. BD*(   2) C  48 - C  49          0.47060     0.04753  684(v),643(r),174(v),677(g)
                                                    171(r),168(r),500(g),491(g)
                                                    493(g),502(g),169(r),641(r)
                                                    490(r),488(r),613(r),172(r)
                                                    164(r),329(r),331(r)
   679. BD*(   1) C  48 - C  52          0.02872     0.52595   
   680. BD*(   1) C  48 - H  53          0.01606     0.49446   
   681. BD*(   1) C  49 - C  50          0.01355     0.54369   
   682. BD*(   1) C  49 - H  79          0.01604     0.49508   
   683. BD*(   1) C  50 - C  51          0.03051     0.52104   
   684. BD*(   2) C  50 - C  51          0.47278     0.04783  678(v),643(r),174(v),683(g)
                                                    168(r),641(r),171(r),172(r)
                                                    509(g),518(g),169(r),520(g)
                                                    603(r),613(r),489(r),488(r)
                                                    170(r),173(r)
   685. BD*(   1) C  50 - H  54          0.01635     0.50154   
   686. BD*(   1) C  51 - C  52          0.02949     0.53259   
   687. BD*(   1) C  51 - H  55          0.01668     0.51946   
   688. BD*(   1) C  52 - H  56          0.01666     0.49560   
       -------------------------------
              Total Lewis   33.74110  ( 96.4764%)
        Valence non-Lewis    1.15858  (  3.3128%)
        Rydberg non-Lewis    0.07373  (  0.2108%)
       -------------------------------
            Total unit  3   34.97341  (100.0000%)
           Charge unit  3    0.02659
 Leave Link  607 at Fri Sep 29 19:34:18 2023, MaxMem=  4026531840 cpu:              33.4 elap:               3.5
 (Enter /sw/arch/RHEL8/EB_production/2022/software/Gaussian/g16.c02/l9999.exe)
 Unable to Open any file for archive entry.
 1\1\GINC-TCN551\SP\RPBE1PBE\def2SVPP\C40H40Fe1P2\ADARSH\29-Sep-2023\0\
 \#p pop=nbo pbe1pbe/def2svpp empiricaldispersion=gd3bj integral=grid=u
 ltrafinegrid scf=(xqc,maxconventionalcycles=90) nosymm\\Cisa\\0,1\P,0,
 0.15639,0.96604,-0.80758\C,0,1.1977,0.54283,-2.23867\C,0,0.60266,-0.09
 941,-3.33075\C,0,1.38125,-0.50891,-4.41353\C,0,2.75449,-0.26617,-4.413
 39\C,0,3.35029,0.38438,-3.33024\C,0,2.57723,0.78395,-2.2434\C,0,0.7120
 1,2.60828,-0.2415\C,0,0.44575,3.01159,1.07566\C,0,0.70728,4.31919,1.47
 687\C,0,1.23136,5.24147,0.56946\C,0,1.49016,4.84953,-0.74309\C,0,1.228
 12,3.54128,-1.15048\P,0,-2.63178,-0.71776,-0.09327\C,0,-1.26333,-1.977
 78,0.10114\C,0,-1.71767,-3.31174,0.67607\C,0,0.58214,-0.15195,0.54475\
 C,0,-0.16271,-1.33832,0.89832\C,0,0.33407,-1.78824,2.15773\C,0,1.38708
 ,-0.92498,2.56885\C,0,1.55298,0.07693,1.5773\H,0,-0.47972,-0.27688,-3.
 32208\H,0,3.04885,1.28381,-1.39204\H,0,0.03405,2.29823,1.79524\H,0,1.4
 28,3.24946,-2.18545\H,0,-0.90592,-2.13151,-0.93311\H,0,-0.86676,-4.013
 62,0.70496\H,0,-2.5152,-3.76237,0.06477\H,0,-2.09429,-3.19944,1.70473\
 H,0,2.28082,0.88751,1.5943\C,0,-3.57547,0.53245,4.21889\C,0,-3.98267,-
 0.74308,3.80459\C,0,-3.72905,-1.1264,2.48528\C,0,-3.08858,-0.24901,1.6
 0043\C,0,-2.71407,1.02506,2.03681\C,0,-2.94253,1.43036,3.35583\H,0,-4.
 05583,-2.11294,2.14412\H,0,-2.24321,1.71358,1.32459\C,0,-6.17367,-2.77
 468,-2.1635\C,0,-6.43191,-1.95396,-1.06354\C,0,-5.34533,-1.37433,-0.39
 433\C,0,-4.03692,-1.60961,-0.82182\C,0,-3.80858,-2.42295,-1.94121\C,0,
 -4.8714,-3.02279,-2.61888\H,0,-5.53165,-0.73403,0.47331\H,0,-2.78793,-
 2.59233,-2.3016\Fe,0,1.81846,-1.76425,0.75289\C,0,2.72814,-3.58732,0.9
 0224\C,0,3.69858,-2.54518,0.93062\C,0,3.58548,-1.80465,-0.28067\C,0,2.
 54684,-2.39212,-1.06099\C,0,2.01829,-3.49271,-0.33035\H,0,2.54481,-4.3
 1321,1.6948\H,0,4.18305,-0.93704,-0.55677\H,0,2.20797,-2.04873,-2.0381
 4\H,0,1.20395,-4.14236,-0.65281\H,0,3.36619,-0.58308,-5.26288\H,0,1.43
 876,6.26722,0.88707\H,0,-3.77014,0.83854,5.25292\H,0,-7.01552,-3.23892
 ,-2.68868\C,0,-4.67723,-1.66852,4.76239\H,0,-5.61114,-1.21936,5.14367\
 H,0,-4.93356,-2.62783,4.28503\H,0,-4.04103,-1.88489,5.63861\C,0,-2.491
 81,2.78234,3.83133\H,0,-3.18715,3.20415,4.57562\H,0,-1.49883,2.71567,4
 .31395\H,0,-2.40664,3.4963,2.99532\C,0,-7.83951,-1.67252,-0.62213\H,0,
 -7.8886,-1.45111,0.45657\H,0,-8.25019,-0.79655,-1.15755\H,0,-8.50649,-
 2.5249,-0.83026\C,0,-4.63339,-3.92603,-3.7948\H,0,-5.29686,-3.67053,-4
 .63847\H,0,-3.59111,-3.86727,-4.14778\H,0,-4.83773,-4.97909,-3.52958\H
 ,0,1.98948,-1.03809,3.47005\H,0,-0.00003,-2.67423,2.6948\H,0,4.38641,-
 2.33384,1.74962\H,0,0.50088,4.61959,2.50836\H,0,1.90105,5.56645,-1.459
 65\H,0,4.42724,0.57569,-3.33245\H,0,0.91326,-1.01466,-5.26283\\Version
 =ES64L-G16RevC.02\HF=-3491.0444432\RMSD=3.093e-09\Dipole=0.3182401,-0.
 4730674,0.5357358\Quadrupole=-2.7217681,-4.2738505,6.9956185,7.9960664
 ,-4.6616542,3.9619555\PG=C01 [X(C40H40Fe1P2)]\\@
 The archive entry for this job was punched.


 ERROR IS THE FORCE THAT WELDS MEN TOGETHER....
 TRUTH IS COMMUNICATED TO MEN ONLY BY DEEDS OF TRUTH.
           TOLSTOI,MY RELIGION
 Job cpu time:       0 days  1 hours  8 minutes 11.3 seconds.
 Elapsed time:       0 days  0 hours  2 minutes 24.7 seconds.
 File lengths (MBytes):  RWF=    480 Int=      0 D2E=      0 Chk=     36 Scr=     32
 Normal termination of Gaussian 16 at Fri Sep 29 19:34:19 2023.
