 Entering Gaussian System, Link 0=g16
 Input=free_ligand_L11_SP.inp
 Output=free_ligand_L11_SP.log
 Initial command:
 /sw/arch/RHEL8/EB_production/2022/software/Gaussian/g16.c02/l1.exe "/scratch-local/adarsh.3962506/Gau-1192731.inp" -scrdir="/scratch-local/adarsh.3962506/"
 Entering Link 1 = /sw/arch/RHEL8/EB_production/2022/software/Gaussian/g16.c02/l1.exe PID=   1192734.
  
 Copyright (c) 1988-2021, Gaussian, Inc.  All Rights Reserved.
  
 This is part of the Gaussian(R) 16 program.  It is based on
 the Gaussian(R) 09 system (copyright 2009, Gaussian, Inc.),
 the Gaussian(R) 03 system (copyright 2003, Gaussian, Inc.),
 the Gaussian(R) 98 system (copyright 1998, Gaussian, Inc.),
 the Gaussian(R) 94 system (copyright 1995, Gaussian, Inc.),
 the Gaussian 92(TM) system (copyright 1992, Gaussian, Inc.),
 the Gaussian 90(TM) system (copyright 1990, Gaussian, Inc.),
 the Gaussian 88(TM) system (copyright 1988, Gaussian, Inc.),
 the Gaussian 86(TM) system (copyright 1986, Carnegie Mellon
 University), and the Gaussian 82(TM) system (copyright 1983,
 Carnegie Mellon University). Gaussian is a federally registered
 trademark of Gaussian, Inc.
  
 This software contains proprietary and confidential information,
 including trade secrets, belonging to Gaussian, Inc.
  
 This software is provided under written license and may be
 used, copied, transmitted, or stored only in accord with that
 written license.
  
 The following legend is applicable only to US Government
 contracts under FAR:
  
                    RESTRICTED RIGHTS LEGEND
  
 Use, reproduction and disclosure by the US Government is
 subject to restrictions as set forth in subparagraphs (a)
 and (c) of the Commercial Computer Software - Restricted
 Rights clause in FAR 52.227-19.
  
 Gaussian, Inc.
 340 Quinnipiac St., Bldg. 40, Wallingford CT 06492
  
  
 ---------------------------------------------------------------
 Warning -- This program may not be used in any manner that
 competes with the business of Gaussian, Inc. or will provide
 assistance to any competitor of Gaussian, Inc.  The licensee
 of this program is prohibited from giving any competitor of
 Gaussian, Inc. access to this program.  By using this program,
 the user acknowledges that Gaussian, Inc. is engaged in the
 business of creating and licensing software in the field of
 computational chemistry and represents and warrants to the
 licensee that it is not a competitor of Gaussian, Inc. and that
 it will not use this program in any manner prohibited above.
 ---------------------------------------------------------------
  

 Cite this work as:
 Gaussian 16, Revision C.02,
 M. J. Frisch, G. W. Trucks, H. B. Schlegel, G. E. Scuseria, 
 M. A. Robb, J. R. Cheeseman, G. Scalmani, V. Barone, 
 G. A. Petersson, H. Nakatsuji, X. Li, M. Caricato, A. V. Marenich, 
 J. Bloino, B. G. Janesko, R. Gomperts, B. Mennucci, H. P. Hratchian, 
 J. V. Ortiz, A. F. Izmaylov, J. L. Sonnenberg, D. Williams-Young, 
 F. Ding, F. Lipparini, F. Egidi, J. Goings, B. Peng, A. Petrone, 
 T. Henderson, D. Ranasinghe, V. G. Zakrzewski, J. Gao, N. Rega, 
 G. Zheng, W. Liang, M. Hada, M. Ehara, K. Toyota, R. Fukuda, 
 J. Hasegawa, M. Ishida, T. Nakajima, Y. Honda, O. Kitao, H. Nakai, 
 T. Vreven, K. Throssell, J. A. Montgomery, Jr., J. E. Peralta, 
 F. Ogliaro, M. J. Bearpark, J. J. Heyd, E. N. Brothers, K. N. Kudin, 
 V. N. Staroverov, T. A. Keith, R. Kobayashi, J. Normand, 
 K. Raghavachari, A. P. Rendell, J. C. Burant, S. S. Iyengar, 
 J. Tomasi, M. Cossi, J. M. Millam, M. Klene, C. Adamo, R. Cammi, 
 J. W. Ochterski, R. L. Martin, K. Morokuma, O. Farkas, 
 J. B. Foresman, and D. J. Fox, Gaussian, Inc., Wallingford CT, 2019.
 
 ******************************************
 Gaussian 16:  ES64L-G16RevC.02  7-Dec-2021
                29-Sep-2023 
 ******************************************
 %nprocshared=32
 Will use up to   32 processors via shared memory.
 %mem=30GB
 %chk=free_ligand_L11.chk
 ----------------------------------------------------------------------
 #p pop=nbo pbe1pbe/def2svpp empiricaldispersion=gd3bj integral=grid=ul
 trafinegrid scf=(xqc,maxconventionalcycles=90) nosymm
 ----------------------------------------------------------------------
 1/38=1,172=1/1;
 2/12=2,15=1,17=6,18=5,40=1/2;
 3/5=43,7=202,11=2,25=1,30=1,74=-13,75=-5,124=41/1,2,3;
 4//1;
 5/5=2,8=3,13=1,38=5,85=90/2,8;
 6/7=2,8=2,9=2,10=2,28=1,40=1/1,7;
 99/5=1,9=1/99;
 Leave Link    1 at Fri Sep 29 19:31:56 2023, MaxMem=  4026531840 cpu:               0.7 elap:               0.8
 (Enter /sw/arch/RHEL8/EB_production/2022/software/Gaussian/g16.c02/l101.exe)
 ----
 Cisa
 ----
 Symbolic Z-matrix:
 Charge =  0 Multiplicity = 1
 C                    -3.54345  -0.93953  -1.28774 
 C                    -4.23965  -1.48506  -0.16959 
 C                    -5.10039  -0.47659   0.34904 
 C                    -4.93601   0.69379  -0.44518 
 C                    -3.97821   0.40337  -1.45926 
 H                    -2.8013   -1.45505  -1.89686 
 H                    -4.12876  -2.49256   0.22795 
 H                    -5.74831  -0.57277   1.22054 
 H                    -5.43852   1.64894  -0.29063 
 H                    -3.63537   1.08997  -2.23312 
 Fe                   -3.15657   0.1544    0.41119 
 C                    -2.37736   1.85592   1.21936 
 C                    -1.35752   1.12824   0.53076 
 C                    -1.27684  -0.16986   1.14631 
 C                    -2.25154  -0.22569   2.19646 
 C                    -2.91854   1.0271    2.24252 
 H                    -2.72289   2.86057   0.98037 
 H                    -2.4396   -1.08413   2.83986 
 H                    -3.73565   1.29312   2.91294 
 C                    -0.52891   1.61988  -0.62486 
 H                    -0.50735   0.80856  -1.37439 
 P                     0.04574  -1.34202   0.79818 
 C                    -1.19896   2.82931  -1.27656 
 H                    -0.78468   3.05496  -2.26767 
 H                    -2.26646   2.5961   -1.4155 
 H                    -1.13584   3.73852  -0.66229 
 P                     1.31839   1.72063  -0.16333 
 C                     2.12783   2.62838  -1.63137 
 C                     1.46328   2.74054   1.43633 
 C                     0.51593   3.93963   1.49317 
 H                    -0.53818   3.62637   1.49215 
 H                     0.69281   4.48385   2.43925 
 H                     0.67856   4.65212   0.67026 
 C                     2.90117   3.23105   1.62414 
 H                     2.98841   3.67201   2.63354 
 H                     3.63286   2.40915   1.56137 
 H                     3.18003   4.01591   0.90463 
 C                     1.14292   1.79387   2.60117 
 H                     1.29384   2.33455   3.55387 
 H                     0.1007    1.44207   2.57695 
 H                     1.81283   0.91292   2.59556 
 C                     1.70033   1.8445   -2.88168 
 H                     0.63175   1.95308  -3.12159 
 H                     2.27049   2.21178  -3.754 
 H                     1.91603   0.76586  -2.76884 
 C                     3.65854   2.55876  -1.55812 
 H                     4.07222   3.05591  -0.67061 
 H                     4.03838   1.53233  -1.58926 
 H                     4.06591   3.08245  -2.44178 
 C                     1.76965   4.11394  -1.75964 
 H                     2.18428   4.49166  -2.71231 
 H                     0.69413   4.32455  -1.76535 
 H                     2.22956   4.70822  -0.95385 
 C                    -0.51631  -2.42262  -0.55076 
 C                    -1.52522  -3.37297  -0.36163 
 C                     0.00823  -2.22257  -1.82942 
 C                    -2.01044  -4.12563  -1.42949 
 H                    -1.95502  -3.52272   0.63306 
 C                    -0.45838  -2.9488   -2.92914 
 H                     0.79822  -1.47446  -1.97037 
 C                    -1.46382  -3.90485  -2.70867 
 C                     0.14469  -2.37855   2.29311 
 C                     0.3567   -3.75781   2.21956 
 C                     0.21963  -1.74728   3.54334 
 C                     0.61466  -4.51869   3.36499 
 H                     0.33102  -4.26903   1.25318 
 C                     0.47211  -2.47082   4.70718 
 H                     0.08939  -0.66421   3.61932 
 C                     0.65872  -3.86208   4.60415 
 O                    -1.98372  -4.59792  -3.7551 
 O                     0.95622  -4.55859   5.7329 
 C                     0.86202  -5.99562   3.27272 
 H                     1.58352  -6.31933   4.03988 
 H                    -0.06702  -6.57415   3.42931 
 H                     1.25313  -6.26925   2.27942 
 C                    -0.12584  -5.20342   6.36848 
 H                    -0.57583  -5.97978   5.72242 
 H                     0.27597  -5.68025   7.27476 
 H                    -0.91225  -4.48115   6.65752 
 C                     0.57344  -1.80013   6.04485 
 H                    -0.2594   -2.09214   6.70902 
 H                     1.50435  -2.08966   6.56027 
 H                     0.55065  -0.70376   5.94032 
 C                    -3.12617  -5.11251  -1.25728 
 H                    -3.9853   -4.84478  -1.89607 
 H                    -2.82094  -6.13225  -1.54905 
 H                    -3.46495  -5.14751  -0.2096 
 C                    -1.26985  -5.74569  -4.15988 
 H                    -1.84588  -6.20659  -4.97581 
 H                    -0.26025  -5.49049  -4.53146 
 H                    -1.17122  -6.47145  -3.33089 
 C                     0.07873  -2.70143  -4.3083 
 H                     0.90722  -3.39121  -4.55348 
 H                    -0.70695  -2.84929  -5.06646 
 H                     0.47012  -1.67498  -4.39988 
 
 ITRead=  0  0  0  0  0  0  0  0  0  0  0  0  0  0  0  0  0  0  0  0
 ITRead=  0  0  0  0  0  0  0  0  0  0  0  0  0  0  0  0  0  0  0  0
 ITRead=  0  0  0  0  0  0  0  0  0  0  0  0  0  0  0  0  0  0  0  0
 ITRead=  0  0  0  0  0  0  0  0  0  0  0  0  0  0  0  0  0  0  0  0
 ITRead=  0  0  0  0  0  0  0  0  0  0  0  0  0  0  0
 MicOpt= -1 -1 -1 -1 -1 -1 -1 -1 -1 -1 -1 -1 -1 -1 -1 -1 -1 -1 -1 -1
 MicOpt= -1 -1 -1 -1 -1 -1 -1 -1 -1 -1 -1 -1 -1 -1 -1 -1 -1 -1 -1 -1
 MicOpt= -1 -1 -1 -1 -1 -1 -1 -1 -1 -1 -1 -1 -1 -1 -1 -1 -1 -1 -1 -1
 MicOpt= -1 -1 -1 -1 -1 -1 -1 -1 -1 -1 -1 -1 -1 -1 -1 -1 -1 -1 -1 -1
 MicOpt= -1 -1 -1 -1 -1 -1 -1 -1 -1 -1 -1 -1 -1 -1 -1
 NAtoms=     95 NQM=       95 NQMF=       0 NMMI=      0 NMMIF=      0
                NMic=       0 NMicF=      0.
                    Isotopes and Nuclear Properties:
 (Nuclear quadrupole moments (NQMom) in fm**2, nuclear magnetic moments (NMagM)
  in nuclear magnetons)

  Atom         1           2           3           4           5           6           7           8           9          10
 IAtWgt=          12          12          12          12          12           1           1           1           1           1
 AtmWgt=  12.0000000  12.0000000  12.0000000  12.0000000  12.0000000   1.0078250   1.0078250   1.0078250   1.0078250   1.0078250
 NucSpn=           0           0           0           0           0           1           1           1           1           1
 AtZEff=  -0.0000000  -0.0000000  -0.0000000  -0.0000000  -0.0000000  -0.0000000  -0.0000000  -0.0000000  -0.0000000  -0.0000000
 NQMom=    0.0000000   0.0000000   0.0000000   0.0000000   0.0000000   0.0000000   0.0000000   0.0000000   0.0000000   0.0000000
 NMagM=    0.0000000   0.0000000   0.0000000   0.0000000   0.0000000   2.7928460   2.7928460   2.7928460   2.7928460   2.7928460
 AtZNuc=   6.0000000   6.0000000   6.0000000   6.0000000   6.0000000   1.0000000   1.0000000   1.0000000   1.0000000   1.0000000

  Atom        11          12          13          14          15          16          17          18          19          20
 IAtWgt=          56          12          12          12          12          12           1           1           1          12
 AtmWgt=  55.9349393  12.0000000  12.0000000  12.0000000  12.0000000  12.0000000   1.0078250   1.0078250   1.0078250  12.0000000
 NucSpn=           0           0           0           0           0           0           1           1           1           0
 AtZEff=  -0.0000000  -0.0000000  -0.0000000  -0.0000000  -0.0000000  -0.0000000  -0.0000000  -0.0000000  -0.0000000  -0.0000000
 NQMom=    0.0000000   0.0000000   0.0000000   0.0000000   0.0000000   0.0000000   0.0000000   0.0000000   0.0000000   0.0000000
 NMagM=    0.0000000   0.0000000   0.0000000   0.0000000   0.0000000   0.0000000   2.7928460   2.7928460   2.7928460   0.0000000
 AtZNuc=  26.0000000   6.0000000   6.0000000   6.0000000   6.0000000   6.0000000   1.0000000   1.0000000   1.0000000   6.0000000

  Atom        21          22          23          24          25          26          27          28          29          30
 IAtWgt=           1          31          12           1           1           1          31          12          12          12
 AtmWgt=   1.0078250  30.9737634  12.0000000   1.0078250   1.0078250   1.0078250  30.9737634  12.0000000  12.0000000  12.0000000
 NucSpn=           1           1           0           1           1           1           1           0           0           0
 AtZEff=  -0.0000000  -0.0000000  -0.0000000  -0.0000000  -0.0000000  -0.0000000  -0.0000000  -0.0000000  -0.0000000  -0.0000000
 NQMom=    0.0000000   0.0000000   0.0000000   0.0000000   0.0000000   0.0000000   0.0000000   0.0000000   0.0000000   0.0000000
 NMagM=    2.7928460   1.1316000   0.0000000   2.7928460   2.7928460   2.7928460   1.1316000   0.0000000   0.0000000   0.0000000
 AtZNuc=   1.0000000  15.0000000   6.0000000   1.0000000   1.0000000   1.0000000  15.0000000   6.0000000   6.0000000   6.0000000

  Atom        31          32          33          34          35          36          37          38          39          40
 IAtWgt=           1           1           1          12           1           1           1          12           1           1
 AtmWgt=   1.0078250   1.0078250   1.0078250  12.0000000   1.0078250   1.0078250   1.0078250  12.0000000   1.0078250   1.0078250
 NucSpn=           1           1           1           0           1           1           1           0           1           1
 AtZEff=  -0.0000000  -0.0000000  -0.0000000  -0.0000000  -0.0000000  -0.0000000  -0.0000000  -0.0000000  -0.0000000  -0.0000000
 NQMom=    0.0000000   0.0000000   0.0000000   0.0000000   0.0000000   0.0000000   0.0000000   0.0000000   0.0000000   0.0000000
 NMagM=    2.7928460   2.7928460   2.7928460   0.0000000   2.7928460   2.7928460   2.7928460   0.0000000   2.7928460   2.7928460
 AtZNuc=   1.0000000   1.0000000   1.0000000   6.0000000   1.0000000   1.0000000   1.0000000   6.0000000   1.0000000   1.0000000

  Atom        41          42          43          44          45          46          47          48          49          50
 IAtWgt=           1          12           1           1           1          12           1           1           1          12
 AtmWgt=   1.0078250  12.0000000   1.0078250   1.0078250   1.0078250  12.0000000   1.0078250   1.0078250   1.0078250  12.0000000
 NucSpn=           1           0           1           1           1           0           1           1           1           0
 AtZEff=  -0.0000000  -0.0000000  -0.0000000  -0.0000000  -0.0000000  -0.0000000  -0.0000000  -0.0000000  -0.0000000  -0.0000000
 NQMom=    0.0000000   0.0000000   0.0000000   0.0000000   0.0000000   0.0000000   0.0000000   0.0000000   0.0000000   0.0000000
 NMagM=    2.7928460   0.0000000   2.7928460   2.7928460   2.7928460   0.0000000   2.7928460   2.7928460   2.7928460   0.0000000
 AtZNuc=   1.0000000   6.0000000   1.0000000   1.0000000   1.0000000   6.0000000   1.0000000   1.0000000   1.0000000   6.0000000

  Atom        51          52          53          54          55          56          57          58          59          60
 IAtWgt=           1           1           1          12          12          12          12           1          12           1
 AtmWgt=   1.0078250   1.0078250   1.0078250  12.0000000  12.0000000  12.0000000  12.0000000   1.0078250  12.0000000   1.0078250
 NucSpn=           1           1           1           0           0           0           0           1           0           1
 AtZEff=  -0.0000000  -0.0000000  -0.0000000  -0.0000000  -0.0000000  -0.0000000  -0.0000000  -0.0000000  -0.0000000  -0.0000000
 NQMom=    0.0000000   0.0000000   0.0000000   0.0000000   0.0000000   0.0000000   0.0000000   0.0000000   0.0000000   0.0000000
 NMagM=    2.7928460   2.7928460   2.7928460   0.0000000   0.0000000   0.0000000   0.0000000   2.7928460   0.0000000   2.7928460
 AtZNuc=   1.0000000   1.0000000   1.0000000   6.0000000   6.0000000   6.0000000   6.0000000   1.0000000   6.0000000   1.0000000

  Atom        61          62          63          64          65          66          67          68          69          70
 IAtWgt=          12          12          12          12          12           1          12           1          12          16
 AtmWgt=  12.0000000  12.0000000  12.0000000  12.0000000  12.0000000   1.0078250  12.0000000   1.0078250  12.0000000  15.9949146
 NucSpn=           0           0           0           0           0           1           0           1           0           0
 AtZEff=  -0.0000000  -0.0000000  -0.0000000  -0.0000000  -0.0000000  -0.0000000  -0.0000000  -0.0000000  -0.0000000  -0.0000000
 NQMom=    0.0000000   0.0000000   0.0000000   0.0000000   0.0000000   0.0000000   0.0000000   0.0000000   0.0000000   0.0000000
 NMagM=    0.0000000   0.0000000   0.0000000   0.0000000   0.0000000   2.7928460   0.0000000   2.7928460   0.0000000   0.0000000
 AtZNuc=   6.0000000   6.0000000   6.0000000   6.0000000   6.0000000   1.0000000   6.0000000   1.0000000   6.0000000   8.0000000

  Atom        71          72          73          74          75          76          77          78          79          80
 IAtWgt=          16          12           1           1           1          12           1           1           1          12
 AtmWgt=  15.9949146  12.0000000   1.0078250   1.0078250   1.0078250  12.0000000   1.0078250   1.0078250   1.0078250  12.0000000
 NucSpn=           0           0           1           1           1           0           1           1           1           0
 AtZEff=  -0.0000000  -0.0000000  -0.0000000  -0.0000000  -0.0000000  -0.0000000  -0.0000000  -0.0000000  -0.0000000  -0.0000000
 NQMom=    0.0000000   0.0000000   0.0000000   0.0000000   0.0000000   0.0000000   0.0000000   0.0000000   0.0000000   0.0000000
 NMagM=    0.0000000   0.0000000   2.7928460   2.7928460   2.7928460   0.0000000   2.7928460   2.7928460   2.7928460   0.0000000
 AtZNuc=   8.0000000   6.0000000   1.0000000   1.0000000   1.0000000   6.0000000   1.0000000   1.0000000   1.0000000   6.0000000

  Atom        81          82          83          84          85          86          87          88          89          90
 IAtWgt=           1           1           1          12           1           1           1          12           1           1
 AtmWgt=   1.0078250   1.0078250   1.0078250  12.0000000   1.0078250   1.0078250   1.0078250  12.0000000   1.0078250   1.0078250
 NucSpn=           1           1           1           0           1           1           1           0           1           1
 AtZEff=  -0.0000000  -0.0000000  -0.0000000  -0.0000000  -0.0000000  -0.0000000  -0.0000000  -0.0000000  -0.0000000  -0.0000000
 NQMom=    0.0000000   0.0000000   0.0000000   0.0000000   0.0000000   0.0000000   0.0000000   0.0000000   0.0000000   0.0000000
 NMagM=    2.7928460   2.7928460   2.7928460   0.0000000   2.7928460   2.7928460   2.7928460   0.0000000   2.7928460   2.7928460
 AtZNuc=   1.0000000   1.0000000   1.0000000   6.0000000   1.0000000   1.0000000   1.0000000   6.0000000   1.0000000   1.0000000

  Atom        91          92          93          94          95
 IAtWgt=           1          12           1           1           1
 AtmWgt=   1.0078250  12.0000000   1.0078250   1.0078250   1.0078250
 NucSpn=           1           0           1           1           1
 AtZEff=  -0.0000000  -0.0000000  -0.0000000  -0.0000000  -0.0000000
 NQMom=    0.0000000   0.0000000   0.0000000   0.0000000   0.0000000
 NMagM=    2.7928460   0.0000000   2.7928460   2.7928460   2.7928460
 AtZNuc=   1.0000000   6.0000000   1.0000000   1.0000000   1.0000000
 Leave Link  101 at Fri Sep 29 19:31:56 2023, MaxMem=  4026531840 cpu:               0.6 elap:               0.2
 (Enter /sw/arch/RHEL8/EB_production/2022/software/Gaussian/g16.c02/l202.exe)
 Symmetry turned off by external request.
 Stoichiometry    C38H52FeO2P2
 Framework group  C1[X(C38H52FeO2P2)]
 Deg. of freedom   279
 Full point group                 C1      NOp   1
                          Input orientation:                          
 ---------------------------------------------------------------------
 Center     Atomic      Atomic             Coordinates (Angstroms)
 Number     Number       Type             X           Y           Z
 ---------------------------------------------------------------------
      1          6           0       -3.543450   -0.939530   -1.287740
      2          6           0       -4.239650   -1.485060   -0.169590
      3          6           0       -5.100390   -0.476590    0.349040
      4          6           0       -4.936010    0.693790   -0.445180
      5          6           0       -3.978210    0.403370   -1.459260
      6          1           0       -2.801300   -1.455050   -1.896860
      7          1           0       -4.128760   -2.492560    0.227950
      8          1           0       -5.748310   -0.572770    1.220540
      9          1           0       -5.438520    1.648940   -0.290630
     10          1           0       -3.635370    1.089970   -2.233120
     11         26           0       -3.156570    0.154400    0.411190
     12          6           0       -2.377360    1.855920    1.219360
     13          6           0       -1.357520    1.128240    0.530760
     14          6           0       -1.276840   -0.169860    1.146310
     15          6           0       -2.251540   -0.225690    2.196460
     16          6           0       -2.918540    1.027100    2.242520
     17          1           0       -2.722890    2.860570    0.980370
     18          1           0       -2.439600   -1.084130    2.839860
     19          1           0       -3.735650    1.293120    2.912940
     20          6           0       -0.528910    1.619880   -0.624860
     21          1           0       -0.507350    0.808560   -1.374390
     22         15           0        0.045740   -1.342020    0.798180
     23          6           0       -1.198960    2.829310   -1.276560
     24          1           0       -0.784680    3.054960   -2.267670
     25          1           0       -2.266460    2.596100   -1.415500
     26          1           0       -1.135840    3.738520   -0.662290
     27         15           0        1.318390    1.720630   -0.163330
     28          6           0        2.127830    2.628380   -1.631370
     29          6           0        1.463280    2.740540    1.436330
     30          6           0        0.515930    3.939630    1.493170
     31          1           0       -0.538180    3.626370    1.492150
     32          1           0        0.692810    4.483850    2.439250
     33          1           0        0.678560    4.652120    0.670260
     34          6           0        2.901170    3.231050    1.624140
     35          1           0        2.988410    3.672010    2.633540
     36          1           0        3.632860    2.409150    1.561370
     37          1           0        3.180030    4.015910    0.904630
     38          6           0        1.142920    1.793870    2.601170
     39          1           0        1.293840    2.334550    3.553870
     40          1           0        0.100700    1.442070    2.576950
     41          1           0        1.812830    0.912920    2.595560
     42          6           0        1.700330    1.844500   -2.881680
     43          1           0        0.631750    1.953080   -3.121590
     44          1           0        2.270490    2.211780   -3.754000
     45          1           0        1.916030    0.765860   -2.768840
     46          6           0        3.658540    2.558760   -1.558120
     47          1           0        4.072220    3.055910   -0.670610
     48          1           0        4.038380    1.532330   -1.589260
     49          1           0        4.065910    3.082450   -2.441780
     50          6           0        1.769650    4.113940   -1.759640
     51          1           0        2.184280    4.491660   -2.712310
     52          1           0        0.694130    4.324550   -1.765350
     53          1           0        2.229560    4.708220   -0.953850
     54          6           0       -0.516310   -2.422620   -0.550760
     55          6           0       -1.525220   -3.372970   -0.361630
     56          6           0        0.008230   -2.222570   -1.829420
     57          6           0       -2.010440   -4.125630   -1.429490
     58          1           0       -1.955020   -3.522720    0.633060
     59          6           0       -0.458380   -2.948800   -2.929140
     60          1           0        0.798220   -1.474460   -1.970370
     61          6           0       -1.463820   -3.904850   -2.708670
     62          6           0        0.144690   -2.378550    2.293110
     63          6           0        0.356700   -3.757810    2.219560
     64          6           0        0.219630   -1.747280    3.543340
     65          6           0        0.614660   -4.518690    3.364990
     66          1           0        0.331020   -4.269030    1.253180
     67          6           0        0.472110   -2.470820    4.707180
     68          1           0        0.089390   -0.664210    3.619320
     69          6           0        0.658720   -3.862080    4.604150
     70          8           0       -1.983720   -4.597920   -3.755100
     71          8           0        0.956220   -4.558590    5.732900
     72          6           0        0.862020   -5.995620    3.272720
     73          1           0        1.583520   -6.319330    4.039880
     74          1           0       -0.067020   -6.574150    3.429310
     75          1           0        1.253130   -6.269250    2.279420
     76          6           0       -0.125840   -5.203420    6.368480
     77          1           0       -0.575830   -5.979780    5.722420
     78          1           0        0.275970   -5.680250    7.274760
     79          1           0       -0.912250   -4.481150    6.657520
     80          6           0        0.573440   -1.800130    6.044850
     81          1           0       -0.259400   -2.092140    6.709020
     82          1           0        1.504350   -2.089660    6.560270
     83          1           0        0.550650   -0.703760    5.940320
     84          6           0       -3.126170   -5.112510   -1.257280
     85          1           0       -3.985300   -4.844780   -1.896070
     86          1           0       -2.820940   -6.132250   -1.549050
     87          1           0       -3.464950   -5.147510   -0.209600
     88          6           0       -1.269850   -5.745690   -4.159880
     89          1           0       -1.845880   -6.206590   -4.975810
     90          1           0       -0.260250   -5.490490   -4.531460
     91          1           0       -1.171220   -6.471450   -3.330890
     92          6           0        0.078730   -2.701430   -4.308300
     93          1           0        0.907220   -3.391210   -4.553480
     94          1           0       -0.706950   -2.849290   -5.066460
     95          1           0        0.470120   -1.674980   -4.399880
 ---------------------------------------------------------------------
 Rotational constants (GHZ):           0.0732062           0.0630621           0.0494910
 Leave Link  202 at Fri Sep 29 19:31:56 2023, MaxMem=  4026531840 cpu:               0.1 elap:               0.0
 (Enter /sw/arch/RHEL8/EB_production/2022/software/Gaussian/g16.c02/l301.exe)
 Standard basis: def2SVPP (5D, 7F)
 Ernie: Thresh=  0.10000D-02 Tol=  0.10000D-05 Strict=F.
   724 basis functions,  1353 primitive gaussians,   768 cartesian basis functions
   176 alpha electrons      176 beta electrons
       nuclear repulsion energy      6911.6358193448 Hartrees.
 IExCor= 1009 DFT=T Ex+Corr=PBE1PBE ExCW=0 ScaHFX=  0.250000
 ScaDFX=  0.750000  0.750000  1.000000  1.000000 ScalE2=  1.000000  1.000000
 IRadAn=      5 IRanWt=     -1 IRanGd=            0 ICorTp=0 IEmpDi=141
 NAtoms=   95 NActive=   95 NUniq=   95 SFac= 1.00D+00 NAtFMM=   60 NAOKFM=T Big=T
 Integral buffers will be    131072 words long.
 Raffenetti 2 integral format.
 Two-electron integral symmetry is turned off.
 R6Disp:  Grimme-D3(BJ) Dispersion energy=       -0.1408425450 Hartrees.
 Nuclear repulsion after empirical dispersion term =     6911.4949767998 Hartrees.
 Leave Link  301 at Fri Sep 29 19:31:56 2023, MaxMem=  4026531840 cpu:               0.1 elap:               0.0
 (Enter /sw/arch/RHEL8/EB_production/2022/software/Gaussian/g16.c02/l302.exe)
 NPDir=0 NMtPBC=     1 NCelOv=     1 NCel=       1 NClECP=     1 NCelD=      1
         NCelK=      1 NCelE2=     1 NClLst=     1 CellRange=     0.0.
 One-electron integrals computed using PRISM.
   1 Symmetry operations used in ECPInt.
 ECPInt:  NShTT=   68635 NPrTT=  283890 LenC2=   58581 LenP2D=  149735.
 LDataN:  DoStor=T MaxTD1= 4 Len=   56
 NBasis=   724 RedAO= T EigKep=  1.85D-04  NBF=   724
 NBsUse=   724 1.00D-06 EigRej= -1.00D+00 NBFU=   724
 Precomputing XC quadrature grid using
 IXCGrd= 4 IRadAn=           5 IRanWt=          -1 IRanGd=           0 AccXCQ= 0.00D+00.
 Generated NRdTot=       0 NPtTot=           0 NUsed=           0 NTot=          32
 NSgBfM=   749   749   749   749   749 MxSgAt=    95 MxSgA2=    95.
 Leave Link  302 at Fri Sep 29 19:31:57 2023, MaxMem=  4026531840 cpu:              27.9 elap:               1.6
 (Enter /sw/arch/RHEL8/EB_production/2022/software/Gaussian/g16.c02/l303.exe)
 DipDrv:  MaxL=1.
 Leave Link  303 at Fri Sep 29 19:31:58 2023, MaxMem=  4026531840 cpu:               1.0 elap:               0.2
 (Enter /sw/arch/RHEL8/EB_production/2022/software/Gaussian/g16.c02/l401.exe)
 ExpMin= 3.37D-02 ExpMax= 6.09D+04 ExpMxC= 9.15D+03 IAcc=3 IRadAn=         5 AccDes= 0.00D+00
 Harris functional with IExCor= 1009 and IRadAn=       5 diagonalized for initial guess.
 HarFok:  IExCor= 1009 AccDes= 0.00D+00 IRadAn=         5 IDoV= 1 UseB2=F ITyADJ=14
 ICtDFT=  3500011 ScaDFX=  1.000000  1.000000  1.000000  1.000000
 FoFCou: FMM=F IPFlag=           0 FMFlag=      100000 FMFlg1=        2001
         NFxFlg=           0 DoJE=T BraDBF=F KetDBF=T FulRan=T
         wScrn=  0.000000 ICntrl=       500 IOpCl=  0 I1Cent=   200000004 NGrid=           0
         NMat0=    1 NMatS0=      1 NMatT0=    0 NMatD0=    1 NMtDS0=    0 NMtDT0=    0
 Symmetry not used in FoFCou.
 Harris En= -3572.73794152914    
 JPrj=0 DoOrth=F DoCkMO=F.
 Leave Link  401 at Fri Sep 29 19:32:01 2023, MaxMem=  4026531840 cpu:              74.2 elap:               2.9
 (Enter /sw/arch/RHEL8/EB_production/2022/software/Gaussian/g16.c02/l502.exe)
 Two-electron integral symmetry not used.
 Closed shell SCF:
 Using DIIS extrapolation, IDIIS=  1040.
 NGot=  4026531840 LenX=  4025317340 LenY=  4024726748
 Requested convergence on RMS density matrix=1.00D-08 within  90 cycles.
 Requested convergence on MAX density matrix=1.00D-06.
 Requested convergence on             energy=1.00D-06.
 No special actions if energy rises.
 Fock matrices will be formed incrementally for  20 cycles.

 Cycle   1  Pass 1  IDiag  1:
 FoFJK:  IHMeth= 1 ICntrl=       0 DoSepK=F KAlg= 0 I1Cent=           0 FoldK=F
 IRaf= 990000000 NMat=       1 IRICut=       1 DoRegI=T DoRafI=F ISym2E= 0 IDoP0=0 IntGTp=1.
 FoFCou: FMM=T IPFlag=           0 FMFlag=      100000 FMFlg1=        2001
         NFxFlg=           0 DoJE=F BraDBF=F KetDBF=F FulRan=T
         wScrn=  0.000000 ICntrl=         0 IOpCl=  0 I1Cent=           0 NGrid=           0
         NMat0=    1 NMatS0=      1 NMatT0=    0 NMatD0=    1 NMtDS0=    0 NMtDT0=    0
 Symmetry not used in FoFCou.
 FMM levels:  10  Number of levels for PrismC:   9
 E= -3571.19119160963    
 DIIS: error= 2.20D-02 at cycle   1 NSaved=   1.
 NSaved= 1 IEnMin= 1 EnMin= -3571.19119160963     IErMin= 1 ErrMin= 2.20D-02
 ErrMax= 2.20D-02  0.00D+00 EMaxC= 1.00D-01 BMatC= 1.03D+00 BMatP= 1.03D+00
 IDIUse=3 WtCom= 7.80D-01 WtEn= 2.20D-01
 Coeff-Com:  0.100D+01
 Coeff-En:   0.100D+01
 Coeff:      0.100D+01
 Gap=     0.194 Goal=   None    Shift=    0.000
 GapD=    0.194 DampG=1.000 DampE=0.250 DampFc=0.2500 IDamp=-1.
 Damping current iteration by 2.50D-01
 RMSDP=3.94D-03 MaxDP=2.04D-01              OVMax= 1.69D-01

 Cycle   2  Pass 1  IDiag  1:
 RMSU=  9.44D-04    CP:  9.82D-01
 E= -3571.57934246012     Delta-E=       -0.388150850486 Rises=F Damp=T
 DIIS: error= 1.05D-02 at cycle   2 NSaved=   2.
 NSaved= 2 IEnMin= 2 EnMin= -3571.57934246012     IErMin= 2 ErrMin= 1.05D-02
 ErrMax= 1.05D-02  0.00D+00 EMaxC= 1.00D-01 BMatC= 2.63D-01 BMatP= 1.03D+00
 IDIUse=3 WtCom= 8.95D-01 WtEn= 1.05D-01
 Coeff-Com: -0.643D+00 0.164D+01
 Coeff-En:   0.000D+00 0.100D+01
 Coeff:     -0.575D+00 0.157D+01
 Gap=     0.256 Goal=   None    Shift=    0.000
 RMSDP=3.78D-03 MaxDP=3.63D-01 DE=-3.88D-01 OVMax= 4.53D-01

 Cycle   3  Pass 1  IDiag  1:
 RMSU=  3.73D-03    CP:  9.81D-01  1.63D+00
 E= -3570.52630394847     Delta-E=        1.053038511647 Rises=F Damp=F
 DIIS: error= 1.03D-01 at cycle   3 NSaved=   3.
 NSaved= 3 IEnMin= 2 EnMin= -3571.57934246012     IErMin= 2 ErrMin= 1.05D-02
 ErrMax= 1.03D-01  0.00D+00 EMaxC= 1.00D-01 BMatC= 2.76D+00 BMatP= 2.63D-01
 IDIUse=2 WtCom= 0.00D+00 WtEn= 1.00D+00
 Coeff-En:   0.000D+00 0.774D+00 0.226D+00
 Coeff:      0.000D+00 0.774D+00 0.226D+00
 Gap=     0.377 Goal=   None    Shift=    0.000
 RMSDP=5.28D-03 MaxDP=4.08D-01 DE= 1.05D+00 OVMax= 3.37D-01

 Cycle   4  Pass 1  IDiag  1:
 RMSU=  1.62D-03    CP:  9.26D-01  2.75D+00 -2.96D-01
 E= -3570.14451966886     Delta-E=        0.381784279611 Rises=F Damp=F
 DIIS: error= 8.66D-02 at cycle   4 NSaved=   4.
 NSaved= 4 IEnMin= 2 EnMin= -3571.57934246012     IErMin= 2 ErrMin= 1.05D-02
 ErrMax= 8.66D-02  0.00D+00 EMaxC= 1.00D-01 BMatC= 3.51D+00 BMatP= 2.63D-01
 IDIUse=2 WtCom= 0.00D+00 WtEn= 1.00D+00
 EnCoef did     1 forward-backward iterations
 Coeff-En:   0.286D-01 0.000D+00 0.513D+00 0.459D+00
 Coeff:      0.286D-01 0.000D+00 0.513D+00 0.459D+00
 Gap=     0.103 Goal=   None    Shift=    0.000
 RMSDP=2.20D-03 MaxDP=2.36D-01 DE= 3.82D-01 OVMax= 2.98D-01

 Cycle   5  Pass 1  IDiag  1:
 RMSU=  8.19D-04    CP:  9.59D-01  1.56D+00  7.25D-02  4.70D-01
 E= -3572.19882190220     Delta-E=       -2.054302233342 Rises=F Damp=F
 DIIS: error= 1.10D-02 at cycle   5 NSaved=   5.
 NSaved= 5 IEnMin= 5 EnMin= -3572.19882190220     IErMin= 2 ErrMin= 1.05D-02
 ErrMax= 1.10D-02  0.00D+00 EMaxC= 1.00D-01 BMatC= 1.04D-01 BMatP= 2.63D-01
 IDIUse=3 WtCom= 8.90D-01 WtEn= 1.10D-01
 Coeff-Com: -0.593D+00 0.802D+00 0.987D-01-0.107D+00 0.799D+00
 Coeff-En:   0.000D+00 0.000D+00 0.862D-01 0.000D+00 0.914D+00
 Coeff:     -0.528D+00 0.714D+00 0.973D-01-0.949D-01 0.812D+00
 Gap=     0.170 Goal=   None    Shift=    0.000
 RMSDP=6.82D-04 MaxDP=7.25D-02 DE=-2.05D+00 OVMax= 4.78D-02

 Cycle   6  Pass 1  IDiag  1:
 RMSU=  2.50D-04    CP:  9.58D-01  1.99D+00  1.65D-01  2.55D-01  9.96D-01
 E= -3572.28923160459     Delta-E=       -0.090409702387 Rises=F Damp=F
 DIIS: error= 3.58D-03 at cycle   6 NSaved=   6.
 NSaved= 6 IEnMin= 6 EnMin= -3572.28923160459     IErMin= 6 ErrMin= 3.58D-03
 ErrMax= 3.58D-03  0.00D+00 EMaxC= 1.00D-01 BMatC= 5.98D-03 BMatP= 1.04D-01
 IDIUse=3 WtCom= 9.64D-01 WtEn= 3.58D-02
 Coeff-Com: -0.216D+00 0.291D+00 0.433D-01-0.579D-01 0.330D+00 0.609D+00
 Coeff-En:   0.000D+00 0.000D+00 0.000D+00 0.000D+00 0.000D+00 0.100D+01
 Coeff:     -0.208D+00 0.281D+00 0.418D-01-0.559D-01 0.318D+00 0.623D+00
 Gap=     0.158 Goal=   None    Shift=    0.000
 RMSDP=1.51D-04 MaxDP=8.89D-03 DE=-9.04D-02 OVMax= 1.72D-02

 Cycle   7  Pass 1  IDiag  1:
 RMSU=  1.11D-04    CP:  9.58D-01  1.95D+00  1.57D-01  2.56D-01  1.02D+00
                    CP:  6.45D-01
 E= -3572.29160300994     Delta-E=       -0.002371405355 Rises=F Damp=F
 DIIS: error= 2.27D-03 at cycle   7 NSaved=   7.
 NSaved= 7 IEnMin= 7 EnMin= -3572.29160300994     IErMin= 7 ErrMin= 2.27D-03
 ErrMax= 2.27D-03  0.00D+00 EMaxC= 1.00D-01 BMatC= 2.61D-03 BMatP= 5.98D-03
 IDIUse=3 WtCom= 9.77D-01 WtEn= 2.27D-02
 Coeff-Com:  0.309D-01-0.448D-01 0.893D-02-0.146D-01-0.115D-01 0.404D+00
 Coeff-Com:  0.627D+00
 Coeff-En:   0.000D+00 0.000D+00 0.000D+00 0.000D+00 0.000D+00 0.128D+00
 Coeff-En:   0.872D+00
 Coeff:      0.302D-01-0.438D-01 0.872D-02-0.143D-01-0.113D-01 0.398D+00
 Coeff:      0.632D+00
 Gap=     0.157 Goal=   None    Shift=    0.000
 RMSDP=9.04D-05 MaxDP=6.77D-03 DE=-2.37D-03 OVMax= 1.04D-02

 Cycle   8  Pass 1  IDiag  1:
 RMSU=  4.80D-05    CP:  9.59D-01  1.94D+00  1.67D-01  2.44D-01  1.04D+00
                    CP:  8.09D-01  5.61D-01
 E= -3572.29339004641     Delta-E=       -0.001787036465 Rises=F Damp=F
 DIIS: error= 5.94D-04 at cycle   8 NSaved=   8.
 NSaved= 8 IEnMin= 8 EnMin= -3572.29339004641     IErMin= 8 ErrMin= 5.94D-04
 ErrMax= 5.94D-04  0.00D+00 EMaxC= 1.00D-01 BMatC= 2.16D-04 BMatP= 2.61D-03
 IDIUse=3 WtCom= 9.94D-01 WtEn= 5.94D-03
 Coeff-Com:  0.499D-01-0.701D-01 0.110D-02-0.188D-02-0.525D-01 0.153D+00
 Coeff-Com:  0.381D+00 0.539D+00
 Coeff-En:   0.000D+00 0.000D+00 0.000D+00 0.000D+00 0.000D+00 0.000D+00
 Coeff-En:   0.000D+00 0.100D+01
 Coeff:      0.496D-01-0.697D-01 0.109D-02-0.187D-02-0.522D-01 0.152D+00
 Coeff:      0.379D+00 0.542D+00
 Gap=     0.157 Goal=   None    Shift=    0.000
 RMSDP=2.95D-05 MaxDP=1.50D-03 DE=-1.79D-03 OVMax= 2.49D-03

 Cycle   9  Pass 1  IDiag  1:
 RMSU=  1.76D-05    CP:  9.59D-01  1.94D+00  1.68D-01  2.44D-01  1.04D+00
                    CP:  7.98D-01  6.75D-01  6.13D-01
 E= -3572.29357648990     Delta-E=       -0.000186443493 Rises=F Damp=F
 DIIS: error= 9.46D-05 at cycle   9 NSaved=   9.
 NSaved= 9 IEnMin= 9 EnMin= -3572.29357648990     IErMin= 9 ErrMin= 9.46D-05
 ErrMax= 9.46D-05  0.00D+00 EMaxC= 1.00D-01 BMatC= 1.02D-05 BMatP= 2.16D-04
 IDIUse=1 WtCom= 1.00D+00 WtEn= 0.00D+00
 Coeff-Com:  0.192D-01-0.262D-01-0.234D-03 0.415D-03-0.237D-01 0.252D-01
 Coeff-Com:  0.103D+00 0.255D+00 0.647D+00
 Coeff:      0.192D-01-0.262D-01-0.234D-03 0.415D-03-0.237D-01 0.252D-01
 Coeff:      0.103D+00 0.255D+00 0.647D+00
 Gap=     0.157 Goal=   None    Shift=    0.000
 RMSDP=8.85D-06 MaxDP=5.35D-04 DE=-1.86D-04 OVMax= 8.93D-04

 Cycle  10  Pass 1  IDiag  1:
 RMSU=  6.56D-06    CP:  9.59D-01  1.94D+00  1.69D-01  2.42D-01  1.04D+00
                    CP:  8.04D-01  6.72D-01  6.78D-01  7.92D-01
 E= -3572.29358417341     Delta-E=       -0.000007683506 Rises=F Damp=F
 DIIS: error= 6.74D-05 at cycle  10 NSaved=  10.
 NSaved=10 IEnMin=10 EnMin= -3572.29358417341     IErMin=10 ErrMin= 6.74D-05
 ErrMax= 6.74D-05  0.00D+00 EMaxC= 1.00D-01 BMatC= 2.82D-06 BMatP= 1.02D-05
 IDIUse=1 WtCom= 1.00D+00 WtEn= 0.00D+00
 Coeff-Com:  0.536D-02-0.692D-02-0.296D-03 0.332D-03-0.765D-02 0.134D-02
 Coeff-Com:  0.230D-01 0.949D-01 0.387D+00 0.503D+00
 Coeff:      0.536D-02-0.692D-02-0.296D-03 0.332D-03-0.765D-02 0.134D-02
 Coeff:      0.230D-01 0.949D-01 0.387D+00 0.503D+00
 Gap=     0.157 Goal=   None    Shift=    0.000
 RMSDP=3.61D-06 MaxDP=3.22D-04 DE=-7.68D-06 OVMax= 3.47D-04

 Cycle  11  Pass 1  IDiag  1:
 RMSU=  1.95D-06    CP:  9.59D-01  1.94D+00  1.68D-01  2.42D-01  1.04D+00
                    CP:  8.05D-01  6.72D-01  6.74D-01  8.62D-01  5.90D-01
 E= -3572.29358609849     Delta-E=       -0.000001925084 Rises=F Damp=F
 DIIS: error= 4.98D-05 at cycle  11 NSaved=  11.
 NSaved=11 IEnMin=11 EnMin= -3572.29358609849     IErMin=11 ErrMin= 4.98D-05
 ErrMax= 4.98D-05  0.00D+00 EMaxC= 1.00D-01 BMatC= 8.92D-07 BMatP= 2.82D-06
 IDIUse=1 WtCom= 1.00D+00 WtEn= 0.00D+00
 Coeff-Com:  0.124D-02-0.149D-02-0.222D-03 0.162D-03-0.193D-02-0.120D-03
 Coeff-Com:  0.550D-02 0.340D-01 0.176D+00 0.298D+00 0.489D+00
 Coeff:      0.124D-02-0.149D-02-0.222D-03 0.162D-03-0.193D-02-0.120D-03
 Coeff:      0.550D-02 0.340D-01 0.176D+00 0.298D+00 0.489D+00
 Gap=     0.157 Goal=   None    Shift=    0.000
 RMSDP=1.44D-06 MaxDP=9.36D-05 DE=-1.93D-06 OVMax= 1.10D-04

 Cycle  12  Pass 1  IDiag  1:
 RMSU=  8.58D-07    CP:  9.59D-01  1.94D+00  1.68D-01  2.42D-01  1.04D+00
                    CP:  8.04D-01  6.73D-01  6.79D-01  8.60D-01  6.42D-01
                    CP:  6.85D-01
 E= -3572.29358660745     Delta-E=       -0.000000508964 Rises=F Damp=F
 DIIS: error= 2.44D-05 at cycle  12 NSaved=  12.
 NSaved=12 IEnMin=12 EnMin= -3572.29358660745     IErMin=12 ErrMin= 2.44D-05
 ErrMax= 2.44D-05  0.00D+00 EMaxC= 1.00D-01 BMatC= 1.97D-07 BMatP= 8.92D-07
 IDIUse=1 WtCom= 1.00D+00 WtEn= 0.00D+00
 Coeff-Com: -0.171D-03 0.260D-03-0.126D-03 0.518D-04 0.247D-03 0.374D-03
 Coeff-Com:  0.421D-03 0.551D-02 0.414D-01 0.813D-01 0.238D+00 0.633D+00
 Coeff:     -0.171D-03 0.260D-03-0.126D-03 0.518D-04 0.247D-03 0.374D-03
 Coeff:      0.421D-03 0.551D-02 0.414D-01 0.813D-01 0.238D+00 0.633D+00
 Gap=     0.157 Goal=   None    Shift=    0.000
 RMSDP=9.26D-07 MaxDP=7.11D-05 DE=-5.09D-07 OVMax= 8.41D-05

 Cycle  13  Pass 1  IDiag  1:
 RMSU=  3.85D-07    CP:  9.59D-01  1.94D+00  1.68D-01  2.43D-01  1.04D+00
                    CP:  8.04D-01  6.72D-01  6.79D-01  8.70D-01  6.53D-01
                    CP:  8.36D-01  9.48D-01
 E= -3572.29358673076     Delta-E=       -0.000000123302 Rises=F Damp=F
 DIIS: error= 8.55D-06 at cycle  13 NSaved=  13.
 NSaved=13 IEnMin=13 EnMin= -3572.29358673076     IErMin=13 ErrMin= 8.55D-06
 ErrMax= 8.55D-06  0.00D+00 EMaxC= 1.00D-01 BMatC= 2.50D-08 BMatP= 1.97D-07
 IDIUse=1 WtCom= 1.00D+00 WtEn= 0.00D+00
 Coeff-Com: -0.312D-03 0.387D-03-0.326D-04-0.266D-05 0.510D-03 0.432D-03
 Coeff-Com: -0.490D-03-0.418D-02-0.194D-01-0.350D-01-0.277D-01 0.281D+00
 Coeff-Com:  0.805D+00
 Coeff:     -0.312D-03 0.387D-03-0.326D-04-0.266D-05 0.510D-03 0.432D-03
 Coeff:     -0.490D-03-0.418D-02-0.194D-01-0.350D-01-0.277D-01 0.281D+00
 Coeff:      0.805D+00
 Gap=     0.157 Goal=   None    Shift=    0.000
 RMSDP=6.16D-07 MaxDP=4.77D-05 DE=-1.23D-07 OVMax= 7.25D-05

 Cycle  14  Pass 1  IDiag  1:
 RMSU=  2.19D-07    CP:  9.59D-01  1.94D+00  1.68D-01  2.43D-01  1.04D+00
                    CP:  8.03D-01  6.72D-01  6.80D-01  8.78D-01  6.69D-01
                    CP:  8.97D-01  1.24D+00  1.17D+00
 E= -3572.29358675475     Delta-E=       -0.000000023998 Rises=F Damp=F
 DIIS: error= 1.70D-06 at cycle  14 NSaved=  14.
 NSaved=14 IEnMin=14 EnMin= -3572.29358675475     IErMin=14 ErrMin= 1.70D-06
 ErrMax= 1.70D-06  0.00D+00 EMaxC= 1.00D-01 BMatC= 1.30D-09 BMatP= 2.50D-08
 IDIUse=1 WtCom= 1.00D+00 WtEn= 0.00D+00
 Coeff-Com: -0.102D-03 0.117D-03 0.944D-05-0.115D-04 0.157D-03 0.666D-04
 Coeff-Com: -0.357D-03-0.336D-02-0.200D-01-0.397D-01-0.825D-01-0.203D-01
 Coeff-Com:  0.464D+00 0.702D+00
 Coeff:     -0.102D-03 0.117D-03 0.944D-05-0.115D-04 0.157D-03 0.666D-04
 Coeff:     -0.357D-03-0.336D-02-0.200D-01-0.397D-01-0.825D-01-0.203D-01
 Coeff:      0.464D+00 0.702D+00
 Gap=     0.157 Goal=   None    Shift=    0.000
 RMSDP=2.62D-07 MaxDP=2.67D-05 DE=-2.40D-08 OVMax= 4.80D-05

 Cycle  15  Pass 1  IDiag  1:
 RMSU=  1.00D-07    CP:  9.59D-01  1.94D+00  1.68D-01  2.43D-01  1.04D+00
                    CP:  8.03D-01  6.72D-01  6.80D-01  8.80D-01  6.73D-01
                    CP:  9.41D-01  1.37D+00  1.54D+00  1.05D+00
 E= -3572.29358675904     Delta-E=       -0.000000004284 Rises=F Damp=F
 DIIS: error= 1.41D-06 at cycle  15 NSaved=  15.
 NSaved=15 IEnMin=15 EnMin= -3572.29358675904     IErMin=15 ErrMin= 1.41D-06
 ErrMax= 1.41D-06  0.00D+00 EMaxC= 1.00D-01 BMatC= 8.80D-10 BMatP= 1.30D-09
 IDIUse=1 WtCom= 1.00D+00 WtEn= 0.00D+00
 Coeff-Com:  0.771D-06-0.376D-05 0.113D-04-0.490D-05-0.165D-04-0.121D-03
 Coeff-Com: -0.225D-03-0.971D-03-0.551D-02-0.112D-01-0.290D-01-0.509D-01
 Coeff-Com:  0.630D-01 0.309D+00 0.726D+00
 Coeff:      0.771D-06-0.376D-05 0.113D-04-0.490D-05-0.165D-04-0.121D-03
 Coeff:     -0.225D-03-0.971D-03-0.551D-02-0.112D-01-0.290D-01-0.509D-01
 Coeff:      0.630D-01 0.309D+00 0.726D+00
 Gap=     0.157 Goal=   None    Shift=    0.000
 RMSDP=1.18D-07 MaxDP=1.42D-05 DE=-4.28D-09 OVMax= 2.48D-05

 Cycle  16  Pass 1  IDiag  1:
 RMSU=  5.74D-08    CP:  9.59D-01  1.94D+00  1.68D-01  2.43D-01  1.04D+00
                    CP:  8.03D-01  6.72D-01  6.81D-01  8.81D-01  6.75D-01
                    CP:  9.59D-01  1.44D+00  1.64D+00  1.31D+00  1.28D+00
 E= -3572.29358676044     Delta-E=       -0.000000001401 Rises=F Damp=F
 DIIS: error= 8.12D-07 at cycle  16 NSaved=  16.
 NSaved=16 IEnMin=16 EnMin= -3572.29358676044     IErMin=16 ErrMin= 8.12D-07
 ErrMax= 8.12D-07  0.00D+00 EMaxC= 1.00D-01 BMatC= 2.82D-10 BMatP= 8.80D-10
 IDIUse=1 WtCom= 1.00D+00 WtEn= 0.00D+00
 Coeff-Com:  0.272D-04-0.323D-04 0.519D-05 0.287D-06-0.463D-04-0.805D-04
 Coeff-Com: -0.362D-04 0.490D-03 0.388D-02 0.846D-02 0.192D-01-0.816D-02
 Coeff-Com: -0.142D+00-0.137D+00 0.297D+00 0.958D+00
 Coeff:      0.272D-04-0.323D-04 0.519D-05 0.287D-06-0.463D-04-0.805D-04
 Coeff:     -0.362D-04 0.490D-03 0.388D-02 0.846D-02 0.192D-01-0.816D-02
 Coeff:     -0.142D+00-0.137D+00 0.297D+00 0.958D+00
 Gap=     0.157 Goal=   None    Shift=    0.000
 RMSDP=1.07D-07 MaxDP=1.29D-05 DE=-1.40D-09 OVMax= 2.25D-05

 Cycle  17  Pass 1  IDiag  1:
 RMSU=  2.90D-08    CP:  9.59D-01  1.94D+00  1.68D-01  2.43D-01  1.04D+00
                    CP:  8.03D-01  6.72D-01  6.81D-01  8.81D-01  6.76D-01
                    CP:  9.76D-01  1.49D+00  1.77D+00  1.48D+00  1.74D+00
                    CP:  1.36D+00
 E= -3572.29358676108     Delta-E=       -0.000000000640 Rises=F Damp=F
 DIIS: error= 2.45D-07 at cycle  17 NSaved=  17.
 NSaved=17 IEnMin=17 EnMin= -3572.29358676108     IErMin=17 ErrMin= 2.45D-07
 ErrMax= 2.45D-07  0.00D+00 EMaxC= 1.00D-01 BMatC= 2.87D-11 BMatP= 2.82D-10
 IDIUse=1 WtCom= 1.00D+00 WtEn= 0.00D+00
 Coeff-Com:  0.940D-05-0.976D-05 0.111D-05 0.646D-06-0.103D-04 0.637D-05
 Coeff-Com:  0.378D-04 0.410D-03 0.306D-02 0.701D-02 0.183D-01 0.961D-02
 Coeff-Com: -0.948D-01-0.166D+00-0.689D-01 0.545D+00 0.746D+00
 Coeff:      0.940D-05-0.976D-05 0.111D-05 0.646D-06-0.103D-04 0.637D-05
 Coeff:      0.378D-04 0.410D-03 0.306D-02 0.701D-02 0.183D-01 0.961D-02
 Coeff:     -0.948D-01-0.166D+00-0.689D-01 0.545D+00 0.746D+00
 Gap=     0.157 Goal=   None    Shift=    0.000
 RMSDP=5.58D-08 MaxDP=6.02D-06 DE=-6.40D-10 OVMax= 1.16D-05

 Cycle  18  Pass 1  IDiag  1:
 RMSU=  1.50D-08    CP:  9.59D-01  1.94D+00  1.68D-01  2.43D-01  1.04D+00
                    CP:  8.03D-01  6.72D-01  6.80D-01  8.81D-01  6.78D-01
                    CP:  9.83D-01  1.52D+00  1.83D+00  1.58D+00  1.97D+00
                    CP:  1.66D+00  8.87D-01
 E= -3572.29358676141     Delta-E=       -0.000000000335 Rises=F Damp=F
 DIIS: error= 7.63D-08 at cycle  18 NSaved=  18.
 NSaved=18 IEnMin=18 EnMin= -3572.29358676141     IErMin=18 ErrMin= 7.63D-08
 ErrMax= 7.63D-08  0.00D+00 EMaxC= 1.00D-01 BMatC= 6.78D-12 BMatP= 2.87D-11
 IDIUse=1 WtCom= 1.00D+00 WtEn= 0.00D+00
 Coeff-Com: -0.287D-06 0.100D-05 0.382D-08 0.127D-06 0.456D-05 0.224D-04
 Coeff-Com:  0.282D-04 0.104D-03 0.777D-03 0.201D-02 0.601D-02 0.552D-02
 Coeff-Com: -0.261D-01-0.632D-01-0.891D-01 0.130D+00 0.419D+00 0.615D+00
 Coeff:     -0.287D-06 0.100D-05 0.382D-08 0.127D-06 0.456D-05 0.224D-04
 Coeff:      0.282D-04 0.104D-03 0.777D-03 0.201D-02 0.601D-02 0.552D-02
 Coeff:     -0.261D-01-0.632D-01-0.891D-01 0.130D+00 0.419D+00 0.615D+00
 Gap=     0.157 Goal=   None    Shift=    0.000
 RMSDP=1.42D-08 MaxDP=1.49D-06 DE=-3.35D-10 OVMax= 2.96D-06

 Cycle  19  Pass 1  IDiag  1:
 RMSU=  4.09D-09    CP:  9.59D-01  1.94D+00  1.68D-01  2.43D-01  1.04D+00
                    CP:  8.03D-01  6.72D-01  6.81D-01  8.81D-01  6.78D-01
                    CP:  9.85D-01  1.53D+00  1.84D+00  1.61D+00  2.03D+00
                    CP:  1.74D+00  1.01D+00  7.98D-01
 E= -3572.29358676129     Delta-E=        0.000000000122 Rises=F Damp=F
 DIIS: error= 2.19D-08 at cycle  19 NSaved=  19.
 NSaved=19 IEnMin=18 EnMin= -3572.29358676141     IErMin=19 ErrMin= 2.19D-08
 ErrMax= 2.19D-08  0.00D+00 EMaxC= 1.00D-01 BMatC= 5.69D-13 BMatP= 6.78D-12
 IDIUse=1 WtCom= 1.00D+00 WtEn= 0.00D+00
 Coeff-Com: -0.970D-06 0.136D-05-0.813D-07 0.115D-07 0.353D-05 0.118D-04
 Coeff-Com:  0.121D-04 0.182D-04 0.143D-03 0.460D-03 0.166D-02 0.205D-02
 Coeff-Com: -0.593D-02-0.198D-01-0.416D-01 0.232D-01 0.164D+00 0.332D+00
 Coeff-Com:  0.543D+00
 Coeff:     -0.970D-06 0.136D-05-0.813D-07 0.115D-07 0.353D-05 0.118D-04
 Coeff:      0.121D-04 0.182D-04 0.143D-03 0.460D-03 0.166D-02 0.205D-02
 Coeff:     -0.593D-02-0.198D-01-0.416D-01 0.232D-01 0.164D+00 0.332D+00
 Coeff:      0.543D+00
 Gap=     0.157 Goal=   None    Shift=    0.000
 RMSDP=2.46D-09 MaxDP=2.18D-07 DE= 1.22D-10 OVMax= 4.47D-07

 SCF Done:  E(RPBE1PBE) =  -3572.29358676     A.U. after   19 cycles
            NFock= 19  Conv=0.25D-08     -V/T= 2.0058
 KE= 3.551797319687D+03 PE=-2.222348355968D+04 EE= 8.187897676430D+03
 Leave Link  502 at Fri Sep 29 19:34:43 2023, MaxMem=  4026531840 cpu:            4657.7 elap:             162.2
 (Enter /sw/arch/RHEL8/EB_production/2022/software/Gaussian/g16.c02/l508.exe)
 QCSCF skips out because SCF is already converged.
 Leave Link  508 at Fri Sep 29 19:34:43 2023, MaxMem=  4026531840 cpu:               0.4 elap:               0.0
 (Enter /sw/arch/RHEL8/EB_production/2022/software/Gaussian/g16.c02/l601.exe)
 Copying SCF densities to generalized density rwf, IOpCl= 0 IROHF=0.

 **********************************************************************

            Population analysis using the SCF Density.

 **********************************************************************

 Alpha  occ. eigenvalues -- -256.34507 -77.18184 -77.16880 -30.11966 -25.96822
 Alpha  occ. eigenvalues --  -25.94916 -25.94913 -19.23115 -19.22153 -10.28784
 Alpha  occ. eigenvalues --  -10.28226 -10.27534 -10.27297 -10.24889 -10.24737
 Alpha  occ. eigenvalues --  -10.24531 -10.24401 -10.24391 -10.24313 -10.23916
 Alpha  occ. eigenvalues --  -10.23875 -10.23767 -10.23728 -10.23666 -10.23653
 Alpha  occ. eigenvalues --  -10.23598 -10.23507 -10.23494 -10.23471 -10.23425
 Alpha  occ. eigenvalues --  -10.23359 -10.23358 -10.23336 -10.23146 -10.22795
 Alpha  occ. eigenvalues --  -10.22684 -10.22328 -10.22305 -10.22065 -10.21902
 Alpha  occ. eigenvalues --  -10.21877 -10.21643 -10.21321 -10.21183 -10.21032
 Alpha  occ. eigenvalues --  -10.20871 -10.20512  -6.59215  -6.57798  -4.73271
 Alpha  occ. eigenvalues --   -4.73263  -4.72728  -4.71861  -4.71828  -4.71282
 Alpha  occ. eigenvalues --   -3.45145  -2.24136  -2.19362  -2.19354  -1.08405
 Alpha  occ. eigenvalues --   -1.07400  -0.91686  -0.89790  -0.87951  -0.86839
 Alpha  occ. eigenvalues --   -0.83500  -0.81519  -0.80485  -0.79783  -0.79516
 Alpha  occ. eigenvalues --   -0.79137  -0.77024  -0.73782  -0.73237  -0.72471
 Alpha  occ. eigenvalues --   -0.72399  -0.72259  -0.71389  -0.69889  -0.69665
 Alpha  occ. eigenvalues --   -0.69365  -0.69239  -0.68656  -0.68475  -0.68385
 Alpha  occ. eigenvalues --   -0.67775  -0.65536  -0.63649  -0.60461  -0.59900
 Alpha  occ. eigenvalues --   -0.59402  -0.58803  -0.57142  -0.55929  -0.55248
 Alpha  occ. eigenvalues --   -0.55221  -0.54939  -0.54279  -0.53840  -0.53023
 Alpha  occ. eigenvalues --   -0.52697  -0.51560  -0.51162  -0.51003  -0.50119
 Alpha  occ. eigenvalues --   -0.48790  -0.47937  -0.47390  -0.46482  -0.46382
 Alpha  occ. eigenvalues --   -0.45512  -0.45428  -0.45016  -0.44733  -0.44312
 Alpha  occ. eigenvalues --   -0.43845  -0.43757  -0.43488  -0.43263  -0.42954
 Alpha  occ. eigenvalues --   -0.42820  -0.42755  -0.42450  -0.42400  -0.41992
 Alpha  occ. eigenvalues --   -0.41917  -0.41772  -0.41488  -0.41425  -0.41085
 Alpha  occ. eigenvalues --   -0.40872  -0.40796  -0.40320  -0.39925  -0.39421
 Alpha  occ. eigenvalues --   -0.39261  -0.38964  -0.38881  -0.38839  -0.38583
 Alpha  occ. eigenvalues --   -0.38244  -0.37920  -0.37836  -0.37654  -0.37320
 Alpha  occ. eigenvalues --   -0.36986  -0.36857  -0.36461  -0.36384  -0.36181
 Alpha  occ. eigenvalues --   -0.35754  -0.35638  -0.34967  -0.34655  -0.34138
 Alpha  occ. eigenvalues --   -0.33812  -0.33197  -0.33034  -0.32776  -0.30989
 Alpha  occ. eigenvalues --   -0.29142  -0.28567  -0.28256  -0.28072  -0.27541
 Alpha  occ. eigenvalues --   -0.26976  -0.25758  -0.25522  -0.25129  -0.24699
 Alpha  occ. eigenvalues --   -0.24464  -0.24114  -0.21824  -0.21245  -0.20917
 Alpha  occ. eigenvalues --   -0.17340
 Alpha virt. eigenvalues --   -0.01657  -0.00485  -0.00108   0.00390   0.00479
 Alpha virt. eigenvalues --    0.00913   0.03795   0.04626   0.05940   0.06170
 Alpha virt. eigenvalues --    0.06612   0.06807   0.06998   0.07468   0.07621
 Alpha virt. eigenvalues --    0.07852   0.08295   0.08794   0.08851   0.09549
 Alpha virt. eigenvalues --    0.09586   0.09812   0.09914   0.10570   0.10825
 Alpha virt. eigenvalues --    0.11128   0.11229   0.11642   0.12023   0.12421
 Alpha virt. eigenvalues --    0.12632   0.12926   0.13013   0.13185   0.13477
 Alpha virt. eigenvalues --    0.13781   0.13973   0.14193   0.14318   0.14588
 Alpha virt. eigenvalues --    0.14673   0.14829   0.15101   0.15336   0.15408
 Alpha virt. eigenvalues --    0.15514   0.15655   0.15822   0.16358   0.16439
 Alpha virt. eigenvalues --    0.16939   0.17373   0.17646   0.17859   0.18084
 Alpha virt. eigenvalues --    0.18266   0.18615   0.18640   0.19115   0.19413
 Alpha virt. eigenvalues --    0.19459   0.19710   0.19723   0.20068   0.20296
 Alpha virt. eigenvalues --    0.20461   0.21036   0.21260   0.21643   0.22081
 Alpha virt. eigenvalues --    0.22429   0.22799   0.22889   0.23264   0.23468
 Alpha virt. eigenvalues --    0.24005   0.24239   0.24565   0.24772   0.24919
 Alpha virt. eigenvalues --    0.25673   0.25812   0.26020   0.26369   0.27180
 Alpha virt. eigenvalues --    0.27972   0.28100   0.28474   0.29369   0.29950
 Alpha virt. eigenvalues --    0.30254   0.31006   0.31746   0.32295   0.32594
 Alpha virt. eigenvalues --    0.32885   0.33278   0.33610   0.34068   0.34243
 Alpha virt. eigenvalues --    0.34547   0.34933   0.35155   0.35549   0.36698
 Alpha virt. eigenvalues --    0.37786   0.38196   0.39164   0.40052   0.41121
 Alpha virt. eigenvalues --    0.41287   0.41805   0.42159   0.42389   0.42651
 Alpha virt. eigenvalues --    0.43096   0.43811   0.43996   0.44495   0.44725
 Alpha virt. eigenvalues --    0.44820   0.45530   0.45697   0.46033   0.46063
 Alpha virt. eigenvalues --    0.46676   0.47023   0.47209   0.47581   0.47675
 Alpha virt. eigenvalues --    0.47976   0.48052   0.48373   0.48682   0.48942
 Alpha virt. eigenvalues --    0.49068   0.49743   0.50165   0.50412   0.50634
 Alpha virt. eigenvalues --    0.50958   0.51314   0.51840   0.52568   0.53264
 Alpha virt. eigenvalues --    0.53693   0.54355   0.54612   0.55113   0.55215
 Alpha virt. eigenvalues --    0.55561   0.55974   0.56469   0.56708   0.57275
 Alpha virt. eigenvalues --    0.57657   0.57999   0.59301   0.59622   0.59780
 Alpha virt. eigenvalues --    0.60271   0.60880   0.61420   0.61770   0.61918
 Alpha virt. eigenvalues --    0.62353   0.62863   0.63125   0.63363   0.64127
 Alpha virt. eigenvalues --    0.64190   0.64636   0.64964   0.65392   0.65702
 Alpha virt. eigenvalues --    0.66035   0.66215   0.66564   0.66735   0.66809
 Alpha virt. eigenvalues --    0.67148   0.67328   0.67567   0.67801   0.68087
 Alpha virt. eigenvalues --    0.68303   0.68520   0.68744   0.69046   0.69171
 Alpha virt. eigenvalues --    0.69306   0.69668   0.69890   0.70266   0.70324
 Alpha virt. eigenvalues --    0.70443   0.70685   0.70846   0.70871   0.71193
 Alpha virt. eigenvalues --    0.71382   0.71615   0.71736   0.71924   0.71966
 Alpha virt. eigenvalues --    0.72065   0.72410   0.72714   0.72787   0.72979
 Alpha virt. eigenvalues --    0.73147   0.73295   0.73391   0.73564   0.73805
 Alpha virt. eigenvalues --    0.74215   0.74345   0.74502   0.74608   0.74869
 Alpha virt. eigenvalues --    0.75068   0.75467   0.75651   0.76086   0.76166
 Alpha virt. eigenvalues --    0.76298   0.76575   0.76840   0.76871   0.76978
 Alpha virt. eigenvalues --    0.77273   0.77440   0.77553   0.77999   0.78078
 Alpha virt. eigenvalues --    0.78245   0.78708   0.78957   0.79189   0.79326
 Alpha virt. eigenvalues --    0.79739   0.80024   0.80138   0.80427   0.80669
 Alpha virt. eigenvalues --    0.81172   0.81418   0.81547   0.81920   0.82224
 Alpha virt. eigenvalues --    0.82797   0.83172   0.83362   0.83763   0.84146
 Alpha virt. eigenvalues --    0.84621   0.84965   0.85371   0.85629   0.85700
 Alpha virt. eigenvalues --    0.86158   0.86554   0.86853   0.87718   0.87978
 Alpha virt. eigenvalues --    0.88304   0.88636   0.88928   0.89211   0.89819
 Alpha virt. eigenvalues --    0.90439   0.90757   0.91250   0.91614   0.92364
 Alpha virt. eigenvalues --    0.92982   0.93208   0.93452   0.94030   0.94358
 Alpha virt. eigenvalues --    0.95320   0.95689   0.96172   0.96402   0.97155
 Alpha virt. eigenvalues --    0.97400   0.98169   0.98790   0.99355   1.00004
 Alpha virt. eigenvalues --    1.00263   1.00717   1.01860   1.02621   1.03572
 Alpha virt. eigenvalues --    1.04338   1.05181   1.06448   1.06662   1.06788
 Alpha virt. eigenvalues --    1.08055   1.09010   1.09903   1.10870   1.12348
 Alpha virt. eigenvalues --    1.12541   1.13119   1.14178   1.14943   1.15591
 Alpha virt. eigenvalues --    1.16354   1.17299   1.18063   1.19200   1.19939
 Alpha virt. eigenvalues --    1.20250   1.21123   1.21459   1.21898   1.22899
 Alpha virt. eigenvalues --    1.23510   1.24271   1.25112   1.25602   1.26983
 Alpha virt. eigenvalues --    1.27251   1.27441   1.27997   1.28481   1.29471
 Alpha virt. eigenvalues --    1.29994   1.31085   1.31473   1.32140   1.32302
 Alpha virt. eigenvalues --    1.33312   1.33886   1.34617   1.35542   1.36123
 Alpha virt. eigenvalues --    1.36608   1.37455   1.38407   1.40116   1.40323
 Alpha virt. eigenvalues --    1.41024   1.41730   1.42278   1.43428   1.44320
 Alpha virt. eigenvalues --    1.45569   1.46529   1.47449   1.49725   1.50211
 Alpha virt. eigenvalues --    1.50737   1.51076   1.52106   1.54418   1.57100
 Alpha virt. eigenvalues --    1.59936   1.61414   1.62186   1.62709   1.63516
 Alpha virt. eigenvalues --    1.64865   1.66060   1.66122   1.67717   1.68402
 Alpha virt. eigenvalues --    1.69479   1.69624   1.71181   1.71631   1.74378
 Alpha virt. eigenvalues --    1.75869   1.76883   1.77781   1.78914   1.79346
 Alpha virt. eigenvalues --    1.80027   1.81071   1.81439   1.81764   1.82111
 Alpha virt. eigenvalues --    1.82750   1.83529   1.84116   1.84391   1.85615
 Alpha virt. eigenvalues --    1.86890   1.87934   1.88368   1.89657   1.89699
 Alpha virt. eigenvalues --    1.90106   1.90813   1.91125   1.91581   1.91965
 Alpha virt. eigenvalues --    1.92207   1.92909   1.93082   1.93780   1.94239
 Alpha virt. eigenvalues --    1.94414   1.94631   1.94991   1.95314   1.95654
 Alpha virt. eigenvalues --    1.95893   1.96515   1.97418   1.97456   1.98355
 Alpha virt. eigenvalues --    1.99106   1.99512   1.99740   2.00840   2.02041
 Alpha virt. eigenvalues --    2.02454   2.02700   2.03715   2.04930   2.05196
 Alpha virt. eigenvalues --    2.05446   2.05612   2.05696   2.06124   2.06563
 Alpha virt. eigenvalues --    2.06835   2.07083   2.07434   2.07762   2.08138
 Alpha virt. eigenvalues --    2.08958   2.09639   2.10593   2.11396   2.11676
 Alpha virt. eigenvalues --    2.11849   2.12498   2.12907   2.14278   2.14474
 Alpha virt. eigenvalues --    2.15066   2.15850   2.16110   2.16853   2.17048
 Alpha virt. eigenvalues --    2.17917   2.18599   2.19108   2.20092   2.20611
 Alpha virt. eigenvalues --    2.21177   2.21559   2.21946   2.22394   2.22546
 Alpha virt. eigenvalues --    2.23104   2.23408   2.23947   2.24325   2.24779
 Alpha virt. eigenvalues --    2.24904   2.25504   2.26585   2.27305   2.28628
 Alpha virt. eigenvalues --    2.29189   2.29545   2.30076   2.30681   2.31045
 Alpha virt. eigenvalues --    2.31691   2.32221   2.32645   2.33313   2.33953
 Alpha virt. eigenvalues --    2.34649   2.35110   2.35733   2.35878   2.38766
 Alpha virt. eigenvalues --    2.39312   2.42413   2.43117   2.44594   2.45929
 Alpha virt. eigenvalues --    2.47924   2.48780   2.49239   2.49573   2.49910
 Alpha virt. eigenvalues --    2.50358   2.50960   2.51140   2.51590   2.51868
 Alpha virt. eigenvalues --    2.52563   2.53110   2.55256   2.57135   2.57853
 Alpha virt. eigenvalues --    2.58656   2.62293   2.63061   2.63928   2.64133
 Alpha virt. eigenvalues --    2.64552   2.65378   2.65511   2.67106   2.68784
 Alpha virt. eigenvalues --    2.70207   2.70486   2.71968   2.72520   2.74438
 Alpha virt. eigenvalues --    2.74906   2.75513   2.77182   2.78136   2.80063
 Alpha virt. eigenvalues --    2.80372   2.83444   2.84473   2.87602   2.88625
 Alpha virt. eigenvalues --    2.89329   2.89695   2.92633   2.94870   2.96059
 Alpha virt. eigenvalues --    2.97030   2.98047   3.00499   3.01388   3.04209
 Alpha virt. eigenvalues --    3.25322   3.26184   3.31454   3.32268   3.37885
 Alpha virt. eigenvalues --    3.38700   3.60464   3.61286
          Condensed to atoms (all electrons):
 Mulliken charges:
               1
     1  C   -0.112027
     2  C   -0.091773
     3  C   -0.067702
     4  C   -0.083647
     5  C   -0.093746
     6  H    0.150486
     7  H    0.108490
     8  H    0.113764
     9  H    0.112847
    10  H    0.111785
    11  Fe  -0.217854
    12  C   -0.102801
    13  C   -0.046459
    14  C   -0.167752
    15  C   -0.091195
    16  C   -0.040535
    17  H    0.105829
    18  H    0.120493
    19  H    0.107277
    20  C   -0.323946
    21  H    0.157733
    22  P    0.404633
    23  C   -0.339391
    24  H    0.150789
    25  H    0.150275
    26  H    0.137019
    27  P    0.347768
    28  C   -0.418757
    29  C   -0.425965
    30  C   -0.293779
    31  H    0.154439
    32  H    0.107637
    33  H    0.131115
    34  C   -0.290475
    35  H    0.117167
    36  H    0.141235
    37  H    0.143503
    38  C   -0.345108
    39  H    0.113479
    40  H    0.212118
    41  H    0.154893
    42  C   -0.324077
    43  H    0.142549
    44  H    0.122156
    45  H    0.158657
    46  C   -0.270852
    47  H    0.129381
    48  H    0.128578
    49  H    0.114505
    50  C   -0.287025
    51  H    0.108245
    52  H    0.133100
    53  H    0.139007
    54  C   -0.082925
    55  C   -0.228225
    56  C   -0.214735
    57  C   -0.017707
    58  H    0.102368
    59  C   -0.020727
    60  H    0.103595
    61  C    0.093204
    62  C   -0.075678
    63  C   -0.247383
    64  C   -0.249673
    65  C   -0.004971
    66  H    0.094781
    67  C   -0.014072
    68  H    0.107068
    69  C    0.084988
    70  O   -0.359898
    71  O   -0.362176
    72  C   -0.300263
    73  H    0.145839
    74  H    0.139832
    75  H    0.131352
    76  C   -0.122400
    77  H    0.115805
    78  H    0.137606
    79  H    0.116391
    80  C   -0.285976
    81  H    0.132460
    82  H    0.146174
    83  H    0.126229
    84  C   -0.281403
    85  H    0.150279
    86  H    0.135558
    87  H    0.125997
    88  C   -0.127685
    89  H    0.141387
    90  H    0.120500
    91  H    0.120526
    92  C   -0.299344
    93  H    0.146733
    94  H    0.146475
    95  H    0.134009
 Sum of Mulliken charges =  -0.00000
 Mulliken charges with hydrogens summed into heavy atoms:
               1
     1  C    0.038459
     2  C    0.016717
     3  C    0.046062
     4  C    0.029200
     5  C    0.018039
    11  Fe  -0.217854
    12  C    0.003028
    13  C   -0.046459
    14  C   -0.167752
    15  C    0.029297
    16  C    0.066742
    20  C   -0.166213
    22  P    0.404633
    23  C    0.098693
    27  P    0.347768
    28  C   -0.418757
    29  C   -0.425965
    30  C    0.099412
    34  C    0.111430
    38  C    0.135382
    42  C    0.099285
    46  C    0.101611
    50  C    0.093327
    54  C   -0.082925
    55  C   -0.125857
    56  C   -0.111140
    57  C   -0.017707
    59  C   -0.020727
    61  C    0.093204
    62  C   -0.075678
    63  C   -0.152602
    64  C   -0.142605
    65  C   -0.004971
    67  C   -0.014072
    69  C    0.084988
    70  O   -0.359898
    71  O   -0.362176
    72  C    0.116760
    76  C    0.247402
    80  C    0.118887
    84  C    0.130430
    88  C    0.254728
    92  C    0.127874
 Electronic spatial extent (au):  <R**2>=          27505.1397
 Charge=              0.0000 electrons
 Dipole moment (field-independent basis, Debye):
    X=             -1.8365    Y=             -1.2161    Z=             -0.5268  Tot=              2.2648
 Quadrupole moment (field-independent basis, Debye-Ang):
   XX=           -289.9527   YY=           -257.0496   ZZ=           -267.8200
   XY=              4.6400   XZ=            -15.9295   YZ=              1.9271
 Traceless Quadrupole moment (field-independent basis, Debye-Ang):
   XX=            -18.3453   YY=             14.5579   ZZ=              3.7874
   XY=              4.6400   XZ=            -15.9295   YZ=              1.9271
 Octapole moment (field-independent basis, Debye-Ang**2):
  XXX=            503.4185  YYY=            546.8077  ZZZ=           -358.4918  XYY=            119.6851
  XXY=            274.3368  XXZ=           -101.2918  XZZ=            138.7866  YZZ=            159.5856
  YYZ=           -148.2583  XYZ=             42.0549
 Hexadecapole moment (field-independent basis, Debye-Ang**3):
 XXXX=          -8433.7169 YYYY=         -14919.1342 ZZZZ=         -12083.3347 XXXY=          -1622.6616
 XXXZ=           -770.0417 YYYX=          -1301.5221 YYYZ=           1331.5315 ZZZX=           -800.3298
 ZZZY=           1039.6580 XXYY=          -4025.5601 XXZZ=          -3594.5158 YYZZ=          -4203.0242
 XXYZ=            409.7820 YYXZ=           -291.6692 ZZXY=           -347.5126
 N-N= 6.911494976800D+03 E-N=-2.222348356418D+04  KE= 3.551797319687D+03
 No NMR shielding tensors so no spin-rotation constants.
 Leave Link  601 at Fri Sep 29 19:34:43 2023, MaxMem=  4026531840 cpu:               5.4 elap:               0.5
 (Enter /sw/arch/RHEL8/EB_production/2022/software/Gaussian/g16.c02/l607.exe)
 ******************************Gaussian NBO Version 3.1******************************
             N A T U R A L   A T O M I C   O R B I T A L   A N D
          N A T U R A L   B O N D   O R B I T A L   A N A L Y S I S
 ******************************Gaussian NBO Version 3.1******************************
       /RESON  / : Allow strongly delocalized NBO set

 Analyzing the SCF density

 Job title: Cisa                                                            

 Storage needed:   1600422 in NPA,   2107925 in NBO (4026484625 available)


 NATURAL POPULATIONS:  Natural atomic orbital occupancies 
                                                          
   NAO  Atom  No  lang   Type(AO)    Occupancy      Energy
 ----------------------------------------------------------
     1    C    1  S      Cor( 1S)     1.99870     -10.09417
     2    C    1  S      Val( 2S)     0.94822      -0.15330
     3    C    1  S      Ryd( 3S)     0.00304       0.85637
     4    C    1  px     Val( 2p)     1.13992      -0.07922
     5    C    1  px     Ryd( 3p)     0.00372       0.87243
     6    C    1  py     Val( 2p)     1.06567      -0.06012
     7    C    1  py     Ryd( 3p)     0.00632       0.79486
     8    C    1  pz     Val( 2p)     1.06107      -0.07800
     9    C    1  pz     Ryd( 3p)     0.00623       0.82199
    10    C    1  dxy    Ryd( 3d)     0.00096       2.13749
    11    C    1  dxz    Ryd( 3d)     0.00086       2.21067
    12    C    1  dyz    Ryd( 3d)     0.00081       2.21707
    13    C    1  dx2y2  Ryd( 3d)     0.00070       2.20771
    14    C    1  dz2    Ryd( 3d)     0.00094       2.14149
 
    15    C    2  S      Cor( 1S)     1.99868     -10.09663
    16    C    2  S      Val( 2S)     0.94770      -0.15593
    17    C    2  S      Ryd( 3S)     0.00300       0.84511
    18    C    2  px     Val( 2p)     1.04050      -0.08217
    19    C    2  px     Ryd( 3p)     0.00476       0.69344
    20    C    2  py     Val( 2p)     1.15889      -0.07395
    21    C    2  py     Ryd( 3p)     0.00603       0.99972
    22    C    2  pz     Val( 2p)     1.07509      -0.07144
    23    C    2  pz     Ryd( 3p)     0.00473       0.70815
    24    C    2  dxy    Ryd( 3d)     0.00078       2.27459
    25    C    2  dxz    Ryd( 3d)     0.00052       2.22206
    26    C    2  dyz    Ryd( 3d)     0.00095       2.23060
    27    C    2  dx2y2  Ryd( 3d)     0.00107       2.09978
    28    C    2  dz2    Ryd( 3d)     0.00094       2.06777
 
    29    C    3  S      Cor( 1S)     1.99866     -10.09938
    30    C    3  S      Val( 2S)     0.95060      -0.16031
    31    C    3  S      Ryd( 3S)     0.00274       0.82672
    32    C    3  px     Val( 2p)     1.05877      -0.09878
    33    C    3  px     Ryd( 3p)     0.00631       0.73777
    34    C    3  py     Val( 2p)     1.03836      -0.05805
    35    C    3  py     Ryd( 3p)     0.00574       0.62604
    36    C    3  pz     Val( 2p)     1.16842      -0.07703
    37    C    3  pz     Ryd( 3p)     0.00372       0.88710
    38    C    3  dxy    Ryd( 3d)     0.00091       2.15980
    39    C    3  dxz    Ryd( 3d)     0.00096       2.15365
    40    C    3  dyz    Ryd( 3d)     0.00083       2.21101
    41    C    3  dx2y2  Ryd( 3d)     0.00084       2.16502
    42    C    3  dz2    Ryd( 3d)     0.00075       2.13371
 
    43    C    4  S      Cor( 1S)     1.99866     -10.09999
    44    C    4  S      Val( 2S)     0.95119      -0.16136
    45    C    4  S      Ryd( 3S)     0.00279       0.82032
    46    C    4  px     Val( 2p)     1.04372      -0.09482
    47    C    4  px     Ryd( 3p)     0.00597       0.68750
    48    C    4  py     Val( 2p)     1.18000      -0.06646
    49    C    4  py     Ryd( 3p)     0.00483       0.94094
    50    C    4  pz     Val( 2p)     1.04487      -0.07442
    51    C    4  pz     Ryd( 3p)     0.00507       0.62115
    52    C    4  dxy    Ryd( 3d)     0.00100       2.11869
    53    C    4  dxz    Ryd( 3d)     0.00066       2.24401
    54    C    4  dyz    Ryd( 3d)     0.00071       2.23319
    55    C    4  dx2y2  Ryd( 3d)     0.00087       2.20122
    56    C    4  dz2    Ryd( 3d)     0.00103       2.01934
 
    57    C    5  S      Cor( 1S)     1.99869     -10.09848
    58    C    5  S      Val( 2S)     0.94816      -0.15753
    59    C    5  S      Ryd( 3S)     0.00303       0.84986
    60    C    5  px     Val( 2p)     1.06608      -0.08387
    61    C    5  px     Ryd( 3p)     0.00458       0.67666
    62    C    5  py     Val( 2p)     1.12169      -0.06192
    63    C    5  py     Ryd( 3p)     0.00514       0.80879
    64    C    5  pz     Val( 2p)     1.08865      -0.08757
    65    C    5  pz     Ryd( 3p)     0.00647       0.84849
    66    C    5  dxy    Ryd( 3d)     0.00069       2.16277
    67    C    5  dxz    Ryd( 3d)     0.00073       2.24724
    68    C    5  dyz    Ryd( 3d)     0.00109       2.13335
    69    C    5  dx2y2  Ryd( 3d)     0.00089       2.14759
    70    C    5  dz2    Ryd( 3d)     0.00087       2.15582
 
    71    H    6  S      Val( 1S)     0.74636       0.13247
    72    H    6  S      Ryd( 2S)     0.00373       0.57756
 
    73    H    7  S      Val( 1S)     0.75578       0.11466
    74    H    7  S      Ryd( 2S)     0.00179       0.45755
 
    75    H    8  S      Val( 1S)     0.75375       0.10908
    76    H    8  S      Ryd( 2S)     0.00115       0.36168
 
    77    H    9  S      Val( 1S)     0.75413       0.10860
    78    H    9  S      Ryd( 2S)     0.00117       0.35824
 
    79    H   10  S      Val( 1S)     0.75660       0.10851
    80    H   10  S      Ryd( 2S)     0.00147       0.39051
 
    81   Fe   11  S      Cor( 1S)     2.00000    -236.19996
    82   Fe   11  S      Cor( 2S)     1.99999     -48.64771
    83   Fe   11  S      Cor( 3S)     1.99698      -4.89068
    84   Fe   11  S      Val( 4S)     0.13942       0.19613
    85   Fe   11  S      Ryd( 5S)     0.00629       0.26885
    86   Fe   11  px     Cor( 2p)     1.99999     -25.74952
    87   Fe   11  px     Cor( 3p)     1.99816      -2.39082
    88   Fe   11  px     Val( 4p)     0.21259       0.41264
    89   Fe   11  py     Cor( 2p)     1.99999     -25.74190
    90   Fe   11  py     Cor( 3p)     1.99916      -2.38077
    91   Fe   11  py     Val( 4p)     0.20999       0.31108
    92   Fe   11  pz     Cor( 2p)     1.99999     -25.74781
    93   Fe   11  pz     Cor( 3p)     1.99867      -2.39009
    94   Fe   11  pz     Val( 4p)     0.22250       0.37792
    95   Fe   11  dxy    Val( 3d)     1.43110      -0.17536
    96   Fe   11  dxy    Ryd( 4d)     0.00217       1.37580
    97   Fe   11  dxz    Val( 3d)     1.78945      -0.22531
    98   Fe   11  dxz    Ryd( 4d)     0.00273       1.28719
    99   Fe   11  dyz    Val( 3d)     1.49487      -0.17763
   100   Fe   11  dyz    Ryd( 4d)     0.00203       1.33918
   101   Fe   11  dx2y2  Val( 3d)     1.37667      -0.16978
   102   Fe   11  dx2y2  Ryd( 4d)     0.00202       1.36619
   103   Fe   11  dz2    Val( 3d)     1.08404      -0.14614
   104   Fe   11  dz2    Ryd( 4d)     0.00251       1.38901
 
   105    C   12  S      Cor( 1S)     1.99864     -10.09436
   106    C   12  S      Val( 2S)     0.93017      -0.14758
   107    C   12  S      Ryd( 3S)     0.00269       0.85718
   108    C   12  px     Val( 2p)     1.07537      -0.08071
   109    C   12  px     Ryd( 3p)     0.00404       0.74064
   110    C   12  py     Val( 2p)     1.16546      -0.08941
   111    C   12  py     Ryd( 3p)     0.00617       1.02678
   112    C   12  pz     Val( 2p)     1.05410      -0.08194
   113    C   12  pz     Ryd( 3p)     0.00466       0.73697
   114    C   12  dxy    Ryd( 3d)     0.00088       2.28922
   115    C   12  dxz    Ryd( 3d)     0.00051       2.25915
   116    C   12  dyz    Ryd( 3d)     0.00083       2.27674
   117    C   12  dx2y2  Ryd( 3d)     0.00092       2.12904
   118    C   12  dz2    Ryd( 3d)     0.00103       2.05236
 
   119    C   13  S      Cor( 1S)     1.99862     -10.10022
   120    C   13  S      Val( 2S)     0.82764      -0.11057
   121    C   13  S      Ryd( 3S)     0.00490       0.97312
   122    C   13  px     Val( 2p)     1.03820      -0.10592
   123    C   13  px     Ryd( 3p)     0.00896       1.00457
   124    C   13  py     Val( 2p)     1.06091      -0.08147
   125    C   13  py     Ryd( 3p)     0.00778       0.94194
   126    C   13  pz     Val( 2p)     1.10442      -0.09294
   127    C   13  pz     Ryd( 3p)     0.00441       1.01399
   128    C   13  dxy    Ryd( 3d)     0.00076       2.23002
   129    C   13  dxz    Ryd( 3d)     0.00080       2.30944
   130    C   13  dyz    Ryd( 3d)     0.00103       2.26728
   131    C   13  dx2y2  Ryd( 3d)     0.00101       2.20778
   132    C   13  dz2    Ryd( 3d)     0.00087       2.19730
 
   133    C   14  S      Cor( 1S)     1.99857     -10.09539
   134    C   14  S      Val( 2S)     0.93200      -0.18161
   135    C   14  S      Ryd( 3S)     0.00398       0.94923
   136    C   14  px     Val( 2p)     1.13444      -0.16286
   137    C   14  px     Ryd( 3p)     0.00785       1.01613
   138    C   14  py     Val( 2p)     1.17887      -0.12805
   139    C   14  py     Ryd( 3p)     0.00785       0.97248
   140    C   14  pz     Val( 2p)     1.11646      -0.10916
   141    C   14  pz     Ryd( 3p)     0.00616       0.84685
   142    C   14  dxy    Ryd( 3d)     0.00118       2.13374
   143    C   14  dxz    Ryd( 3d)     0.00065       2.28571
   144    C   14  dyz    Ryd( 3d)     0.00068       2.23741
   145    C   14  dx2y2  Ryd( 3d)     0.00105       2.28486
   146    C   14  dz2    Ryd( 3d)     0.00106       2.06952
 
   147    C   15  S      Cor( 1S)     1.99865     -10.09544
   148    C   15  S      Val( 2S)     0.93372      -0.14935
   149    C   15  S      Ryd( 3S)     0.00321       0.85182
   150    C   15  px     Val( 2p)     1.03438      -0.08121
   151    C   15  px     Ryd( 3p)     0.00520       0.70410
   152    C   15  py     Val( 2p)     1.16345      -0.07000
   153    C   15  py     Ryd( 3p)     0.00620       0.93350
   154    C   15  pz     Val( 2p)     1.07002      -0.09276
   155    C   15  pz     Ryd( 3p)     0.00700       0.78317
   156    C   15  dxy    Ryd( 3d)     0.00068       2.24533
   157    C   15  dxz    Ryd( 3d)     0.00065       2.29830
   158    C   15  dyz    Ryd( 3d)     0.00109       2.14169
   159    C   15  dx2y2  Ryd( 3d)     0.00090       2.14699
   160    C   15  dz2    Ryd( 3d)     0.00084       2.13193
 
   161    C   16  S      Cor( 1S)     1.99866     -10.09984
   162    C   16  S      Val( 2S)     0.94212      -0.15535
   163    C   16  S      Ryd( 3S)     0.00256       0.85080
   164    C   16  px     Val( 2p)     1.15756      -0.08334
   165    C   16  px     Ryd( 3p)     0.00427       0.87441
   166    C   16  py     Val( 2p)     1.04004      -0.06167
   167    C   16  py     Ryd( 3p)     0.00616       0.64040
   168    C   16  pz     Val( 2p)     1.06554      -0.09286
   169    C   16  pz     Ryd( 3p)     0.00629       0.75749
   170    C   16  dxy    Ryd( 3d)     0.00089       2.18528
   171    C   16  dxz    Ryd( 3d)     0.00092       2.17573
   172    C   16  dyz    Ryd( 3d)     0.00085       2.21101
   173    C   16  dx2y2  Ryd( 3d)     0.00074       2.16940
   174    C   16  dz2    Ryd( 3d)     0.00090       2.12776
 
   175    H   17  S      Val( 1S)     0.74519       0.10844
   176    H   17  S      Ryd( 2S)     0.00121       0.40832
 
   177    H   18  S      Val( 1S)     0.73931       0.11994
   178    H   18  S      Ryd( 2S)     0.00133       0.40860
 
   179    H   19  S      Val( 1S)     0.75114       0.10799
   180    H   19  S      Ryd( 2S)     0.00118       0.35761
 
   181    C   20  S      Cor( 1S)     1.99900     -10.11163
   182    C   20  S      Val( 2S)     0.98861      -0.22091
   183    C   20  S      Ryd( 3S)     0.00493       1.04158
   184    C   20  px     Val( 2p)     1.18743      -0.14613
   185    C   20  px     Ryd( 3p)     0.00502       0.79474
   186    C   20  py     Val( 2p)     1.17007      -0.09704
   187    C   20  py     Ryd( 3p)     0.00492       0.84006
   188    C   20  pz     Val( 2p)     1.15289      -0.09275
   189    C   20  pz     Ryd( 3p)     0.00363       0.78637
   190    C   20  dxy    Ryd( 3d)     0.00072       2.10263
   191    C   20  dxz    Ryd( 3d)     0.00071       2.17254
   192    C   20  dyz    Ryd( 3d)     0.00108       2.26547
   193    C   20  dx2y2  Ryd( 3d)     0.00126       2.12905
   194    C   20  dz2    Ryd( 3d)     0.00066       2.02572
 
   195    H   21  S      Val( 1S)     0.72730       0.10728
   196    H   21  S      Ryd( 2S)     0.00372       0.60356
 
   197    P   22  S      Cor( 1S)     1.99999     -76.24019
   198    P   22  S      Cor( 2S)     1.99857      -7.30683
   199    P   22  S      Val( 3S)     1.24555      -0.36650
   200    P   22  S      Ryd( 4S)     0.00494       0.76225
   201    P   22  px     Cor( 2p)     1.99983      -4.72102
   202    P   22  px     Val( 3p)     1.24553      -0.08154
   203    P   22  px     Ryd( 4p)     0.00577       0.81061
   204    P   22  py     Cor( 2p)     1.99977      -4.72251
   205    P   22  py     Val( 3p)     0.84903      -0.03045
   206    P   22  py     Ryd( 4p)     0.00581       0.85562
   207    P   22  pz     Cor( 2p)     1.99973      -4.72307
   208    P   22  pz     Val( 3p)     0.72691      -0.01765
   209    P   22  pz     Ryd( 4p)     0.00514       0.85229
   210    P   22  dxy    Ryd( 3d)     0.00490       1.17015
   211    P   22  dxz    Ryd( 3d)     0.00437       0.99323
   212    P   22  dyz    Ryd( 3d)     0.00769       1.18412
   213    P   22  dx2y2  Ryd( 3d)     0.00363       0.98519
[...]
   496. RY*(   6) C  64                  0.00009     2.33759   
   497. RY*(   7) C  64                  0.00006     1.85188   
   498. RY*(   8) C  64                  0.00005     2.33084   
   499. RY*(   9) C  64                  0.00003     2.15057   
   500. RY*(   1) C  65                  0.00615     1.19048   
   501. RY*(   2) C  65                  0.00310     0.97247   
   502. RY*(   3) C  65                  0.00205     0.88461   
   503. RY*(   4) C  65                  0.00102     0.94216   
   504. RY*(   5) C  65                  0.00079     1.74728   
   505. RY*(   6) C  65                  0.00039     2.36744   
   506. RY*(   7) C  65                  0.00026     1.72876   
   507. RY*(   8) C  65                  0.00012     2.25360   
   508. RY*(   9) C  65                  0.00002     2.22608   
   509. RY*(   1) H  66                  0.00213     0.45204   
   510. RY*(   1) C  67                  0.00625     1.19166   
   511. RY*(   2) C  67                  0.00307     0.96934   
   512. RY*(   3) C  67                  0.00208     0.91174   
   513. RY*(   4) C  67                  0.00117     0.86405   
   514. RY*(   5) C  67                  0.00076     1.79924   
   515. RY*(   6) C  67                  0.00039     2.35072   
   516. RY*(   7) C  67                  0.00028     1.73503   
   517. RY*(   8) C  67                  0.00011     2.26973   
   518. RY*(   9) C  67                  0.00002     2.22983   
   519. RY*(   1) H  68                  0.00296     0.61144   
   520. RY*(   1) C  69                  0.00706     1.02344   
   521. RY*(   2) C  69                  0.00369     0.94018   
   522. RY*(   3) C  69                  0.00314     0.85969   
   523. RY*(   4) C  69                  0.00195     1.02585   
   524. RY*(   5) C  69                  0.00189     2.27131   
   525. RY*(   6) C  69                  0.00121     1.80144   
   526. RY*(   7) C  69                  0.00075     1.94275   
   527. RY*(   8) C  69                  0.00023     2.22898   
   528. RY*(   9) C  69                  0.00003     2.21316   
   529. RY*(   1) O  70                  0.00301     1.27484   
   530. RY*(   2) O  70                  0.00189     1.40737   
   531. RY*(   3) O  70                  0.00021     2.79081   
   532. RY*(   4) O  70                  0.00020     2.92033   
   533. RY*(   5) O  70                  0.00014     1.98284   
   534. RY*(   6) O  70                  0.00006     1.59113   
   535. RY*(   7) O  70                  0.00003     2.79389   
   536. RY*(   8) O  70                  0.00001     2.75625   
   537. RY*(   9) O  70                  0.00000     2.62382   
   538. RY*(   1) O  71                  0.00298     1.28062   
   539. RY*(   2) O  71                  0.00189     1.41792   
   540. RY*(   3) O  71                  0.00021     2.85039   
   541. RY*(   4) O  71                  0.00021     2.81528   
   542. RY*(   5) O  71                  0.00014     2.07101   
   543. RY*(   6) O  71                  0.00006     1.58203   
   544. RY*(   7) O  71                  0.00003     2.78456   
   545. RY*(   8) O  71                  0.00001     2.62395   
   546. RY*(   9) O  71                  0.00001     2.76762   
   547. RY*(   1) C  72                  0.00411     0.73969   
   548. RY*(   2) C  72                  0.00142     1.02265   
   549. RY*(   3) C  72                  0.00106     0.67927   
   550. RY*(   4) C  72                  0.00011     1.15875   
   551. RY*(   5) C  72                  0.00005     1.72548   
   552. RY*(   6) C  72                  0.00001     2.04931   
   553. RY*(   7) C  72                  0.00002     1.72123   
   554. RY*(   8) C  72                  0.00002     2.11688   
   555. RY*(   9) C  72                  0.00001     1.81167   
   556. RY*(   1) H  73                  0.00300     0.39249   
   557. RY*(   1) H  74                  0.00154     0.39618   
   558. RY*(   1) H  75                  0.00136     0.38161   
   559. RY*(   1) C  76                  0.00237     1.01976   
   560. RY*(   2) C  76                  0.00188     1.93785   
   561. RY*(   3) C  76                  0.00142     0.94815   
   562. RY*(   4) C  76                  0.00061     0.59918   
   563. RY*(   5) C  76                  0.00029     1.29579   
   564. RY*(   6) C  76                  0.00001     2.08291   
   565. RY*(   7) C  76                  0.00001     2.01431   
   566. RY*(   8) C  76                  0.00001     0.70439   
   567. RY*(   9) C  76                  0.00000     1.95552   
   568. RY*(   1) H  77                  0.00250     0.41119   
   569. RY*(   1) H  78                  0.00110     0.32748   
   570. RY*(   1) H  79                  0.00235     0.39642   
   571. RY*(   1) C  80                  0.00490     0.72896   
   572. RY*(   2) C  80                  0.00144     0.97429   
   573. RY*(   3) C  80                  0.00107     0.74467   
   574. RY*(   4) C  80                  0.00012     1.39663   
   575. RY*(   5) C  80                  0.00006     1.58736   
   576. RY*(   6) C  80                  0.00003     1.77998   
   577. RY*(   7) C  80                  0.00001     1.93798   
   578. RY*(   8) C  80                  0.00001     2.04696   
   579. RY*(   9) C  80                  0.00001     1.84434   
   580. RY*(   1) H  81                  0.00149     0.40577   
   581. RY*(   1) H  82                  0.00234     0.38004   
   582. RY*(   1) H  83                  0.00130     0.39484   
   583. RY*(   1) C  84                  0.00508     0.72062   
   584. RY*(   2) C  84                  0.00152     0.97539   
   585. RY*(   3) C  84                  0.00107     0.72801   
   586. RY*(   4) C  84                  0.00013     1.43340   
   587. RY*(   5) C  84                  0.00006     1.56912   
   588. RY*(   6) C  84                  0.00004     1.66715   
   589. RY*(   7) C  84                  0.00002     2.06136   
   590. RY*(   8) C  84                  0.00001     1.90835   
   591. RY*(   9) C  84                  0.00001     1.97542   
   592. RY*(   1) H  85                  0.00217     0.38249   
   593. RY*(   1) H  86                  0.00150     0.40445   
   594. RY*(   1) H  87                  0.00125     0.39837   
   595. RY*(   1) C  88                  0.00238     1.02543   
   596. RY*(   2) C  88                  0.00186     1.93176   
   597. RY*(   3) C  88                  0.00145     0.88563   
   598. RY*(   4) C  88                  0.00061     0.60267   
   599. RY*(   5) C  88                  0.00031     1.31507   
   600. RY*(   6) C  88                  0.00001     0.70319   
   601. RY*(   7) C  88                  0.00001     1.94509   
   602. RY*(   8) C  88                  0.00001     2.08329   
   603. RY*(   9) C  88                  0.00001     2.00854   
   604. RY*(   1) H  89                  0.00101     0.32230   
   605. RY*(   1) H  90                  0.00243     0.40800   
   606. RY*(   1) H  91                  0.00226     0.39072   
   607. RY*(   1) C  92                  0.00419     0.73257   
   608. RY*(   2) C  92                  0.00150     0.99480   
   609. RY*(   3) C  92                  0.00106     0.66247   
   610. RY*(   4) C  92                  0.00010     1.10430   
   611. RY*(   5) C  92                  0.00005     1.79416   
   612. RY*(   6) C  92                  0.00002     2.03185   
   613. RY*(   7) C  92                  0.00002     1.80016   
   614. RY*(   8) C  92                  0.00001     1.96233   
   615. RY*(   9) C  92                  0.00000     1.89615   
   616. RY*(   1) H  93                  0.00152     0.39217   
   617. RY*(   1) H  94                  0.00291     0.38696   
   618. RY*(   1) H  95                  0.00135     0.40128   
   631. BD*(   1) C  12 - C  13          0.04394     0.51561   
   632. BD*(   2) C  12 - C  13          0.48304     0.04407  638(v),628(r),176(v),631(g)
                                                    174(r),171(r),645(v),620(r)
                                                    170(r),241(g),239(g),643(v)
                                                    651(r),252(g),679(r),249(g)
                                                    173(r),235(r),238(r),172(r)
                                                    210(r)
   633. BD*(   1) C  12 - C  16          0.02841     0.53041   
   634. BD*(   1) C  12 - H  17          0.01671     0.48998   
   635. BD*(   1) C  13 - C  14          0.03389     0.52922   
   636. BD*(   1) C  13 - C  20          0.03490     0.46026   
   637. BD*(   1) C  14 - C  15          0.04241     0.50646   
   638. BD*(   2) C  14 - C  15          0.52891     0.03435  632(v),176(v),637(g),170(r)
                                                    679(r),174(r),620(r),646(v)
                                                    173(r),171(r),639(g),268(g)
                                                    267(g),258(g),266(g),269(g)
                                                    261(g),259(g),628(r),172(r)
                                                    236(r),166(r),237(r),238(r)
                                                    235(r)
   639. BD*(   1) C  14 - P  22          0.04411     0.28938   
   640. BD*(   1) C  15 - C  16          0.03196     0.53229   
   641. BD*(   1) C  15 - H  18          0.01705     0.50075   
   642. BD*(   1) C  16 - H  19          0.01623     0.49338   
   643. BD*(   1) C  20 - H  21          0.02110     0.46830   
   644. BD*(   1) C  20 - C  23          0.02193     0.41526   
   645. BD*(   1) C  20 - P  27          0.03958     0.21562   
   646. BD*(   1) P  22 - C  54          0.03629     0.28656   
   647. BD*(   1) P  22 - C  62          0.03423     0.28689   
   648. BD*(   1) C  23 - H  24          0.00776     0.47498   
   649. BD*(   1) C  23 - H  25          0.01355     0.47517   
   650. BD*(   1) C  23 - H  26          0.00952     0.46552   
   651. BD*(   1) P  27 - C  28          0.04754     0.21963   
   652. BD*(   1) P  27 - C  29          0.04726     0.21790   
   653. BD*(   1) C  28 - C  42          0.02180     0.40081   
   654. BD*(   1) C  28 - C  46          0.02185     0.40783   
   655. BD*(   1) C  28 - C  50          0.03106     0.41140   
   656. BD*(   1) C  29 - C  30          0.02949     0.41936   
   657. BD*(   1) C  29 - C  34          0.02194     0.41324   
   658. BD*(   1) C  29 - C  38          0.02272     0.41285   
   659. BD*(   1) C  30 - H  31          0.00852     0.49236   
   660. BD*(   1) C  30 - H  32          0.01394     0.46231   
   661. BD*(   1) C  30 - H  33          0.00761     0.47866   
   662. BD*(   1) C  34 - H  35          0.01160     0.46348   
   663. BD*(   1) C  34 - H  36          0.00834     0.47371   
   664. BD*(   1) C  34 - H  37          0.00855     0.47456   
   665. BD*(   1) C  38 - H  39          0.01177     0.46743   
   666. BD*(   1) C  38 - H  40          0.00749     0.50573   
   667. BD*(   1) C  38 - H  41          0.00753     0.47750   
   668. BD*(   1) C  42 - H  43          0.00837     0.47558   
   669. BD*(   1) C  42 - H  44          0.01134     0.46105   
   670. BD*(   1) C  42 - H  45          0.00876     0.46704   
   671. BD*(   1) C  46 - H  47          0.00799     0.48574   
   672. BD*(   1) C  46 - H  48          0.00768     0.48882   
   673. BD*(   1) C  46 - H  49          0.01055     0.46066   
   674. BD*(   1) C  50 - H  51          0.01383     0.45871   
   675. BD*(   1) C  50 - H  52          0.00860     0.48829   
   676. BD*(   1) C  50 - H  53          0.00798     0.47075   
   677. BD*(   1) C  54 - C  55          0.03163     0.60357   
   678. BD*(   1) C  54 - C  56          0.02571     0.60520   
   679. BD*(   2) C  54 - C  56          0.36516     0.04506  688(v),681(v),437(g),638(r)
                                                    639(v),420(g),620(r),692(r)
                                                    647(v),419(g),628(r)
   680. BD*(   1) C  55 - C  57          0.02844     0.61643   
   681. BD*(   2) C  55 - C  57          0.33042     0.05480  688(v),679(v),692(r),429(g)
                                                    717(v),428(g),716(v),448(g)
                                                    430(g),620(r),628(r)
   682. BD*(   1) C  55 - H  58          0.01799     0.48416   
   683. BD*(   1) C  56 - C  59          0.02708     0.60632   
   684. BD*(   1) C  56 - H  60          0.01843     0.48766   
   685. BD*(   1) C  57 - C  61          0.04134     0.58885   
   686. BD*(   1) C  57 - C  84          0.01840     0.45495   
   687. BD*(   1) C  59 - C  61          0.04227     0.59325   
   688. BD*(   2) C  59 - C  61          0.36960     0.04779  679(v),681(v),722(v),705(v)
                                                    460(g),456(g),723(v),469(g)
                                                    620(r)
   689. BD*(   1) C  59 - C  92          0.01804     0.45247   
   690. BD*(   1) C  61 - O  70          0.02950     0.39944   
   691. BD*(   1) C  62 - C  63          0.02507     0.61186   
   692. BD*(   2) C  62 - C  63          0.39682     0.05074  700(v),697(v),681(r),484(g)
                                                    476(g),485(g),679(r),639(v)
                                                    493(v)
   693. BD*(   1) C  62 - C  64          0.02459     0.60439   
   694. BD*(   1) C  63 - C  65          0.02701     0.61685   
   695. BD*(   1) C  63 - H  66          0.01781     0.49344   
   696. BD*(   1) C  64 - C  67          0.02666     0.62619   
   697. BD*(   2) C  64 - C  67          0.34007     0.06627  700(v),692(v),493(g),713(v)
                                                    714(v),495(g),516(g),514(g)
   698. BD*(   1) C  64 - H  68          0.01755     0.50466   
   699. BD*(   1) C  65 - C  69          0.04185     0.60802   
   700. BD*(   2) C  65 - C  69          0.37838     0.06141  697(v),692(v),708(v),706(v)
                                                    502(g),506(g),707(v),522(g)
                                                    525(g)
   701. BD*(   1) C  65 - C  72          0.01788     0.46031   
   702. BD*(   1) C  67 - C  69          0.04108     0.60158   
   703. BD*(   1) C  67 - C  80          0.01775     0.46283   
   704. BD*(   1) C  69 - O  71          0.02954     0.40999   
   705. BD*(   1) O  70 - C  88          0.00895     0.31662   
   706. BD*(   1) O  71 - C  76          0.00914     0.32474   
   707. BD*(   1) C  72 - H  73          0.00795     0.47040   
   708. BD*(   1) C  72 - H  74          0.01092     0.45325   
   709. BD*(   1) C  72 - H  75          0.00632     0.46641   
   710. BD*(   1) C  76 - H  77          0.02115     0.44808   
   711. BD*(   1) C  76 - H  78          0.00967     0.46538   
   712. BD*(   1) C  76 - H  79          0.02047     0.44605   
   713. BD*(   1) C  80 - H  81          0.01002     0.45913   
   714. BD*(   1) C  80 - H  82          0.00882     0.47009   
   715. BD*(   1) C  80 - H  83          0.00557     0.46957   
   716. BD*(   1) C  84 - H  85          0.00931     0.46119   
   717. BD*(   1) C  84 - H  86          0.00951     0.45518   
   718. BD*(   1) C  84 - H  87          0.00560     0.45983   
   719. BD*(   1) C  88 - H  89          0.00939     0.45989   
   720. BD*(   1) C  88 - H  90          0.02084     0.44280   
   721. BD*(   1) C  88 - H  91          0.02004     0.43987   
   722. BD*(   1) C  92 - H  93          0.01085     0.44821   
   723. BD*(   1) C  92 - H  94          0.00778     0.46313   
   724. BD*(   1) C  92 - H  95          0.00620     0.46081   
       -------------------------------
              Total Lewis  285.56739  ( 98.1176%)
        Valence non-Lewis    4.90421  (  1.6850%)
        Rydberg non-Lewis    0.57455  (  0.1974%)
       -------------------------------
            Total unit  3  291.04614  (100.0000%)
           Charge unit  3   -0.04614
 Leave Link  607 at Fri Sep 29 19:34:46 2023, MaxMem=  4026531840 cpu:              26.4 elap:               2.8
 (Enter /sw/arch/RHEL8/EB_production/2022/software/Gaussian/g16.c02/l9999.exe)
 Unable to Open any file for archive entry.
 1\1\GINC-TCN1229\SP\RPBE1PBE\def2SVPP\C38H52Fe1O2P2\ADARSH\29-Sep-2023
 \0\\#p pop=nbo pbe1pbe/def2svpp empiricaldispersion=gd3bj integral=gri
 d=ultrafinegrid scf=(xqc,maxconventionalcycles=90) nosymm\\Cisa\\0,1\C
 ,0,-3.54345,-0.93953,-1.28774\C,0,-4.23965,-1.48506,-0.16959\C,0,-5.10
 039,-0.47659,0.34904\C,0,-4.93601,0.69379,-0.44518\C,0,-3.97821,0.4033
 7,-1.45926\H,0,-2.8013,-1.45505,-1.89686\H,0,-4.12876,-2.49256,0.22795
 \H,0,-5.74831,-0.57277,1.22054\H,0,-5.43852,1.64894,-0.29063\H,0,-3.63
 537,1.08997,-2.23312\Fe,0,-3.15657,0.1544,0.41119\C,0,-2.37736,1.85592
 ,1.21936\C,0,-1.35752,1.12824,0.53076\C,0,-1.27684,-0.16986,1.14631\C,
 0,-2.25154,-0.22569,2.19646\C,0,-2.91854,1.0271,2.24252\H,0,-2.72289,2
 .86057,0.98037\H,0,-2.4396,-1.08413,2.83986\H,0,-3.73565,1.29312,2.912
 94\C,0,-0.52891,1.61988,-0.62486\H,0,-0.50735,0.80856,-1.37439\P,0,0.0
 4574,-1.34202,0.79818\C,0,-1.19896,2.82931,-1.27656\H,0,-0.78468,3.054
 96,-2.26767\H,0,-2.26646,2.5961,-1.4155\H,0,-1.13584,3.73852,-0.66229\
 P,0,1.31839,1.72063,-0.16333\C,0,2.12783,2.62838,-1.63137\C,0,1.46328,
 2.74054,1.43633\C,0,0.51593,3.93963,1.49317\H,0,-0.53818,3.62637,1.492
 15\H,0,0.69281,4.48385,2.43925\H,0,0.67856,4.65212,0.67026\C,0,2.90117
 ,3.23105,1.62414\H,0,2.98841,3.67201,2.63354\H,0,3.63286,2.40915,1.561
 37\H,0,3.18003,4.01591,0.90463\C,0,1.14292,1.79387,2.60117\H,0,1.29384
 ,2.33455,3.55387\H,0,0.1007,1.44207,2.57695\H,0,1.81283,0.91292,2.5955
 6\C,0,1.70033,1.8445,-2.88168\H,0,0.63175,1.95308,-3.12159\H,0,2.27049
 ,2.21178,-3.754\H,0,1.91603,0.76586,-2.76884\C,0,3.65854,2.55876,-1.55
 812\H,0,4.07222,3.05591,-0.67061\H,0,4.03838,1.53233,-1.58926\H,0,4.06
 591,3.08245,-2.44178\C,0,1.76965,4.11394,-1.75964\H,0,2.18428,4.49166,
 -2.71231\H,0,0.69413,4.32455,-1.76535\H,0,2.22956,4.70822,-0.95385\C,0
 ,-0.51631,-2.42262,-0.55076\C,0,-1.52522,-3.37297,-0.36163\C,0,0.00823
 ,-2.22257,-1.82942\C,0,-2.01044,-4.12563,-1.42949\H,0,-1.95502,-3.5227
 2,0.63306\C,0,-0.45838,-2.9488,-2.92914\H,0,0.79822,-1.47446,-1.97037\
 C,0,-1.46382,-3.90485,-2.70867\C,0,0.14469,-2.37855,2.29311\C,0,0.3567
 ,-3.75781,2.21956\C,0,0.21963,-1.74728,3.54334\C,0,0.61466,-4.51869,3.
 36499\H,0,0.33102,-4.26903,1.25318\C,0,0.47211,-2.47082,4.70718\H,0,0.
 08939,-0.66421,3.61932\C,0,0.65872,-3.86208,4.60415\O,0,-1.98372,-4.59
 792,-3.7551\O,0,0.95622,-4.55859,5.7329\C,0,0.86202,-5.99562,3.27272\H
 ,0,1.58352,-6.31933,4.03988\H,0,-0.06702,-6.57415,3.42931\H,0,1.25313,
 -6.26925,2.27942\C,0,-0.12584,-5.20342,6.36848\H,0,-0.57583,-5.97978,5
 .72242\H,0,0.27597,-5.68025,7.27476\H,0,-0.91225,-4.48115,6.65752\C,0,
 0.57344,-1.80013,6.04485\H,0,-0.2594,-2.09214,6.70902\H,0,1.50435,-2.0
 8966,6.56027\H,0,0.55065,-0.70376,5.94032\C,0,-3.12617,-5.11251,-1.257
 28\H,0,-3.9853,-4.84478,-1.89607\H,0,-2.82094,-6.13225,-1.54905\H,0,-3
 .46495,-5.14751,-0.2096\C,0,-1.26985,-5.74569,-4.15988\H,0,-1.84588,-6
 .20659,-4.97581\H,0,-0.26025,-5.49049,-4.53146\H,0,-1.17122,-6.47145,-
 3.33089\C,0,0.07873,-2.70143,-4.3083\H,0,0.90722,-3.39121,-4.55348\H,0
 ,-0.70695,-2.84929,-5.06646\H,0,0.47012,-1.67498,-4.39988\\Version=ES6
 4L-G16RevC.02\HF=-3572.2935868\RMSD=2.459e-09\Dipole=-0.7225411,-0.478
 441,-0.2072663\Quadrupole=-13.6392744,10.8234069,2.8158675,3.4497146,-
 11.8432143,1.4327279\PG=C01 [X(C38H52Fe1O2P2)]\\@
 The archive entry for this job was punched.


 HE WHO LAUGHS LAST PROBABLY DIDN'T GET THE JOKE.
 Job cpu time:       0 days  1 hours 19 minutes 55.2 seconds.
 Elapsed time:       0 days  0 hours  2 minutes 51.3 seconds.
 File lengths (MBytes):  RWF=    512 Int=      0 D2E=      0 Chk=     36 Scr=     32
 Normal termination of Gaussian 16 at Fri Sep 29 19:34:46 2023.
