 Entering Gaussian System, Link 0=g16
 Input=free_ligand_L12_SP.inp
 Output=free_ligand_L12_SP.log
 Initial command:
 /sw/arch/RHEL8/EB_production/2022/software/Gaussian/g16.c02/l1.exe "/scratch-local/adarsh.3962508/Gau-2048523.inp" -scrdir="/scratch-local/adarsh.3962508/"
 Entering Link 1 = /sw/arch/RHEL8/EB_production/2022/software/Gaussian/g16.c02/l1.exe PID=   2048524.
  
 Copyright (c) 1988-2021, Gaussian, Inc.  All Rights Reserved.
  
 This is part of the Gaussian(R) 16 program.  It is based on
 the Gaussian(R) 09 system (copyright 2009, Gaussian, Inc.),
 the Gaussian(R) 03 system (copyright 2003, Gaussian, Inc.),
 the Gaussian(R) 98 system (copyright 1998, Gaussian, Inc.),
 the Gaussian(R) 94 system (copyright 1995, Gaussian, Inc.),
 the Gaussian 92(TM) system (copyright 1992, Gaussian, Inc.),
 the Gaussian 90(TM) system (copyright 1990, Gaussian, Inc.),
 the Gaussian 88(TM) system (copyright 1988, Gaussian, Inc.),
 the Gaussian 86(TM) system (copyright 1986, Carnegie Mellon
 University), and the Gaussian 82(TM) system (copyright 1983,
 Carnegie Mellon University). Gaussian is a federally registered
 trademark of Gaussian, Inc.
  
 This software contains proprietary and confidential information,
 including trade secrets, belonging to Gaussian, Inc.
  
 This software is provided under written license and may be
 used, copied, transmitted, or stored only in accord with that
 written license.
  
 The following legend is applicable only to US Government
 contracts under FAR:
  
                    RESTRICTED RIGHTS LEGEND
  
 Use, reproduction and disclosure by the US Government is
 subject to restrictions as set forth in subparagraphs (a)
 and (c) of the Commercial Computer Software - Restricted
 Rights clause in FAR 52.227-19.
  
 Gaussian, Inc.
 340 Quinnipiac St., Bldg. 40, Wallingford CT 06492
  
  
 ---------------------------------------------------------------
 Warning -- This program may not be used in any manner that
 competes with the business of Gaussian, Inc. or will provide
 assistance to any competitor of Gaussian, Inc.  The licensee
 of this program is prohibited from giving any competitor of
 Gaussian, Inc. access to this program.  By using this program,
 the user acknowledges that Gaussian, Inc. is engaged in the
 business of creating and licensing software in the field of
 computational chemistry and represents and warrants to the
 licensee that it is not a competitor of Gaussian, Inc. and that
 it will not use this program in any manner prohibited above.
 ---------------------------------------------------------------
  

 Cite this work as:
 Gaussian 16, Revision C.02,
 M. J. Frisch, G. W. Trucks, H. B. Schlegel, G. E. Scuseria, 
 M. A. Robb, J. R. Cheeseman, G. Scalmani, V. Barone, 
 G. A. Petersson, H. Nakatsuji, X. Li, M. Caricato, A. V. Marenich, 
 J. Bloino, B. G. Janesko, R. Gomperts, B. Mennucci, H. P. Hratchian, 
 J. V. Ortiz, A. F. Izmaylov, J. L. Sonnenberg, D. Williams-Young, 
 F. Ding, F. Lipparini, F. Egidi, J. Goings, B. Peng, A. Petrone, 
 T. Henderson, D. Ranasinghe, V. G. Zakrzewski, J. Gao, N. Rega, 
 G. Zheng, W. Liang, M. Hada, M. Ehara, K. Toyota, R. Fukuda, 
 J. Hasegawa, M. Ishida, T. Nakajima, Y. Honda, O. Kitao, H. Nakai, 
 T. Vreven, K. Throssell, J. A. Montgomery, Jr., J. E. Peralta, 
 F. Ogliaro, M. J. Bearpark, J. J. Heyd, E. N. Brothers, K. N. Kudin, 
 V. N. Staroverov, T. A. Keith, R. Kobayashi, J. Normand, 
 K. Raghavachari, A. P. Rendell, J. C. Burant, S. S. Iyengar, 
 J. Tomasi, M. Cossi, J. M. Millam, M. Klene, C. Adamo, R. Cammi, 
 J. W. Ochterski, R. L. Martin, K. Morokuma, O. Farkas, 
 J. B. Foresman, and D. J. Fox, Gaussian, Inc., Wallingford CT, 2019.
 
 ******************************************
 Gaussian 16:  ES64L-G16RevC.02  7-Dec-2021
                29-Sep-2023 
 ******************************************
 %nprocshared=32
 Will use up to   32 processors via shared memory.
 %mem=30GB
 %chk=free_ligand_L12.chk
 ----------------------------------------------------------------------
 #p pop=nbo pbe1pbe/def2svpp empiricaldispersion=gd3bj integral=grid=ul
 trafinegrid scf=(xqc,maxconventionalcycles=90) nosymm
 ----------------------------------------------------------------------
 1/38=1,172=1/1;
 2/12=2,15=1,17=6,18=5,40=1/2;
 3/5=43,7=202,11=2,25=1,30=1,74=-13,75=-5,124=41/1,2,3;
 4//1;
 5/5=2,8=3,13=1,38=5,85=90/2,8;
 6/7=2,8=2,9=2,10=2,28=1,40=1/1,7;
 99/5=1,9=1/99;
 Leave Link    1 at Fri Sep 29 19:31:47 2023, MaxMem=  4026531840 cpu:               0.3 elap:               0.7
 (Enter /sw/arch/RHEL8/EB_production/2022/software/Gaussian/g16.c02/l101.exe)
 ----
 Cisa
 ----
 Symbolic Z-matrix:
 Charge =  0 Multiplicity = 1
 C                    -3.53713  -0.78243  -1.25602 
 C                    -4.05978  -1.48569  -0.13138 
 C                    -5.00411  -0.64024   0.51627 
 C                    -5.06399   0.58711  -0.20359 
 C                    -4.16088   0.49613  -1.30119 
 H                    -2.79051  -1.15769  -1.95546 
 H                    -3.7692   -2.48533   0.1893 
 H                    -5.5582   -0.8764    1.42505 
 H                    -5.67534   1.45224   0.05393 
 H                    -3.97827   1.27319  -2.04352 
 Fe                   -3.16166   0.24705   0.47784 
 C                    -2.36812   1.99798   1.18158 
 C                    -1.35939   1.2346    0.51841 
 C                    -1.2865   -0.03421   1.19118 
 C                    -2.24134  -0.03393   2.26251 
 C                    -2.89757   1.22551   2.25351 
 H                    -2.71142   2.99138   0.89684 
 H                    -2.44074  -0.86279   2.93932 
 H                    -3.70366   1.52941   2.92115 
 C                    -0.52054   1.66276  -0.65482 
 H                    -0.50551   0.82441  -1.37305 
 P                    -0.00583  -1.22911   0.80732 
 C                    -1.17075   2.85475  -1.35583 
 H                    -0.73659   3.04909  -2.34479 
 H                    -2.23636   2.61841  -1.50933 
 H                    -1.1167    3.78216  -0.76771 
 P                     1.32948   1.74173  -0.18699 
 C                     2.16244   2.57665  -1.68081 
 C                     1.49189   2.79853   1.3853 
 C                     0.57088   4.01926   1.39874 
 H                    -0.49009   3.72972   1.39935 
 H                     0.75321   4.58965   2.32816 
 H                     0.755     4.70097   0.55441 
 C                     2.94025   3.26296   1.55935 
 H                     3.03675   3.73521   2.55358 
 H                     3.65311   2.42283   1.5252 
 H                     3.23748   4.01661   0.81428 
 C                     1.15103   1.89562   2.58019 
 H                     1.31507   2.46473   3.51372 
 H                     0.1022    1.56356   2.57195 
 H                     1.80284   1.00133   2.60378 
 C                     1.71517   1.75703  -2.90146 
 H                     0.65642   1.90637  -3.16153 
 H                     2.31334   2.059    -3.78 
 H                     1.87395   0.67504  -2.73749 
 C                     3.6902    2.46594  -1.59942 
 H                     4.11631   2.97533  -0.72468 
 H                     4.03847   1.4275   -1.60131 
 H                     4.11508   2.95207  -2.49613 
 C                     1.84094   4.06482  -1.85946 
 H                     2.25716   4.39852  -2.8277 
 H                     0.77034   4.30047  -1.86511 
 H                     2.32063   4.67578  -1.07797 
 C                    -0.53919  -2.24927  -0.57932 
 C                    -1.18542  -3.44892  -0.71562 
 O                    -0.22551  -1.75806  -1.80879 
 C                    -1.27785  -3.69649  -2.11807 
 H                    -1.5414   -4.08286   0.09362 
 C                    -0.6798   -2.63198  -2.72753 
 H                    -1.72908  -4.55792  -2.6086 
 H                    -0.5024   -2.36668  -3.76808 
 C                    -0.04236  -2.3577    2.21678 
 C                    -0.06156  -2.10581   3.56497 
 O                     0.18676  -3.67753   2.00554 
 C                     0.14876  -3.36215   4.20996 
 H                    -0.1983   -1.13472   4.03904 
 C                     0.29203  -4.27714   3.20894 
 H                     0.18281  -3.55742   5.28083 
 H                     0.45861  -5.35248   3.19139 
 
 ITRead=  0  0  0  0  0  0  0  0  0  0  0  0  0  0  0  0  0  0  0  0
 ITRead=  0  0  0  0  0  0  0  0  0  0  0  0  0  0  0  0  0  0  0  0
 ITRead=  0  0  0  0  0  0  0  0  0  0  0  0  0  0  0  0  0  0  0  0
 ITRead=  0  0  0  0  0  0  0  0  0
 MicOpt= -1 -1 -1 -1 -1 -1 -1 -1 -1 -1 -1 -1 -1 -1 -1 -1 -1 -1 -1 -1
 MicOpt= -1 -1 -1 -1 -1 -1 -1 -1 -1 -1 -1 -1 -1 -1 -1 -1 -1 -1 -1 -1
 MicOpt= -1 -1 -1 -1 -1 -1 -1 -1 -1 -1 -1 -1 -1 -1 -1 -1 -1 -1 -1 -1
 MicOpt= -1 -1 -1 -1 -1 -1 -1 -1 -1
 NAtoms=     69 NQM=       69 NQMF=       0 NMMI=      0 NMMIF=      0
                NMic=       0 NMicF=      0.
                    Isotopes and Nuclear Properties:
 (Nuclear quadrupole moments (NQMom) in fm**2, nuclear magnetic moments (NMagM)
  in nuclear magnetons)

  Atom         1           2           3           4           5           6           7           8           9          10
 IAtWgt=          12          12          12          12          12           1           1           1           1           1
 AtmWgt=  12.0000000  12.0000000  12.0000000  12.0000000  12.0000000   1.0078250   1.0078250   1.0078250   1.0078250   1.0078250
 NucSpn=           0           0           0           0           0           1           1           1           1           1
 AtZEff=  -0.0000000  -0.0000000  -0.0000000  -0.0000000  -0.0000000  -0.0000000  -0.0000000  -0.0000000  -0.0000000  -0.0000000
 NQMom=    0.0000000   0.0000000   0.0000000   0.0000000   0.0000000   0.0000000   0.0000000   0.0000000   0.0000000   0.0000000
 NMagM=    0.0000000   0.0000000   0.0000000   0.0000000   0.0000000   2.7928460   2.7928460   2.7928460   2.7928460   2.7928460
 AtZNuc=   6.0000000   6.0000000   6.0000000   6.0000000   6.0000000   1.0000000   1.0000000   1.0000000   1.0000000   1.0000000

  Atom        11          12          13          14          15          16          17          18          19          20
 IAtWgt=          56          12          12          12          12          12           1           1           1          12
 AtmWgt=  55.9349393  12.0000000  12.0000000  12.0000000  12.0000000  12.0000000   1.0078250   1.0078250   1.0078250  12.0000000
 NucSpn=           0           0           0           0           0           0           1           1           1           0
 AtZEff=  -0.0000000  -0.0000000  -0.0000000  -0.0000000  -0.0000000  -0.0000000  -0.0000000  -0.0000000  -0.0000000  -0.0000000
 NQMom=    0.0000000   0.0000000   0.0000000   0.0000000   0.0000000   0.0000000   0.0000000   0.0000000   0.0000000   0.0000000
 NMagM=    0.0000000   0.0000000   0.0000000   0.0000000   0.0000000   0.0000000   2.7928460   2.7928460   2.7928460   0.0000000
 AtZNuc=  26.0000000   6.0000000   6.0000000   6.0000000   6.0000000   6.0000000   1.0000000   1.0000000   1.0000000   6.0000000

  Atom        21          22          23          24          25          26          27          28          29          30
 IAtWgt=           1          31          12           1           1           1          31          12          12          12
 AtmWgt=   1.0078250  30.9737634  12.0000000   1.0078250   1.0078250   1.0078250  30.9737634  12.0000000  12.0000000  12.0000000
 NucSpn=           1           1           0           1           1           1           1           0           0           0
 AtZEff=  -0.0000000  -0.0000000  -0.0000000  -0.0000000  -0.0000000  -0.0000000  -0.0000000  -0.0000000  -0.0000000  -0.0000000
 NQMom=    0.0000000   0.0000000   0.0000000   0.0000000   0.0000000   0.0000000   0.0000000   0.0000000   0.0000000   0.0000000
 NMagM=    2.7928460   1.1316000   0.0000000   2.7928460   2.7928460   2.7928460   1.1316000   0.0000000   0.0000000   0.0000000
 AtZNuc=   1.0000000  15.0000000   6.0000000   1.0000000   1.0000000   1.0000000  15.0000000   6.0000000   6.0000000   6.0000000

  Atom        31          32          33          34          35          36          37          38          39          40
 IAtWgt=           1           1           1          12           1           1           1          12           1           1
 AtmWgt=   1.0078250   1.0078250   1.0078250  12.0000000   1.0078250   1.0078250   1.0078250  12.0000000   1.0078250   1.0078250
 NucSpn=           1           1           1           0           1           1           1           0           1           1
 AtZEff=  -0.0000000  -0.0000000  -0.0000000  -0.0000000  -0.0000000  -0.0000000  -0.0000000  -0.0000000  -0.0000000  -0.0000000
 NQMom=    0.0000000   0.0000000   0.0000000   0.0000000   0.0000000   0.0000000   0.0000000   0.0000000   0.0000000   0.0000000
 NMagM=    2.7928460   2.7928460   2.7928460   0.0000000   2.7928460   2.7928460   2.7928460   0.0000000   2.7928460   2.7928460
 AtZNuc=   1.0000000   1.0000000   1.0000000   6.0000000   1.0000000   1.0000000   1.0000000   6.0000000   1.0000000   1.0000000

  Atom        41          42          43          44          45          46          47          48          49          50
 IAtWgt=           1          12           1           1           1          12           1           1           1          12
 AtmWgt=   1.0078250  12.0000000   1.0078250   1.0078250   1.0078250  12.0000000   1.0078250   1.0078250   1.0078250  12.0000000
 NucSpn=           1           0           1           1           1           0           1           1           1           0
 AtZEff=  -0.0000000  -0.0000000  -0.0000000  -0.0000000  -0.0000000  -0.0000000  -0.0000000  -0.0000000  -0.0000000  -0.0000000
 NQMom=    0.0000000   0.0000000   0.0000000   0.0000000   0.0000000   0.0000000   0.0000000   0.0000000   0.0000000   0.0000000
 NMagM=    2.7928460   0.0000000   2.7928460   2.7928460   2.7928460   0.0000000   2.7928460   2.7928460   2.7928460   0.0000000
 AtZNuc=   1.0000000   6.0000000   1.0000000   1.0000000   1.0000000   6.0000000   1.0000000   1.0000000   1.0000000   6.0000000

  Atom        51          52          53          54          55          56          57          58          59          60
 IAtWgt=           1           1           1          12          12          16          12           1          12           1
 AtmWgt=   1.0078250   1.0078250   1.0078250  12.0000000  12.0000000  15.9949146  12.0000000   1.0078250  12.0000000   1.0078250
 NucSpn=           1           1           1           0           0           0           0           1           0           1
 AtZEff=  -0.0000000  -0.0000000  -0.0000000  -0.0000000  -0.0000000  -0.0000000  -0.0000000  -0.0000000  -0.0000000  -0.0000000
 NQMom=    0.0000000   0.0000000   0.0000000   0.0000000   0.0000000   0.0000000   0.0000000   0.0000000   0.0000000   0.0000000
 NMagM=    2.7928460   2.7928460   2.7928460   0.0000000   0.0000000   0.0000000   0.0000000   2.7928460   0.0000000   2.7928460
 AtZNuc=   1.0000000   1.0000000   1.0000000   6.0000000   6.0000000   8.0000000   6.0000000   1.0000000   6.0000000   1.0000000

  Atom        61          62          63          64          65          66          67          68          69
 IAtWgt=           1          12          12          16          12           1          12           1           1
 AtmWgt=   1.0078250  12.0000000  12.0000000  15.9949146  12.0000000   1.0078250  12.0000000   1.0078250   1.0078250
 NucSpn=           1           0           0           0           0           1           0           1           1
 AtZEff=  -0.0000000  -0.0000000  -0.0000000  -0.0000000  -0.0000000  -0.0000000  -0.0000000  -0.0000000  -0.0000000
 NQMom=    0.0000000   0.0000000   0.0000000   0.0000000   0.0000000   0.0000000   0.0000000   0.0000000   0.0000000
 NMagM=    2.7928460   0.0000000   0.0000000   0.0000000   0.0000000   2.7928460   0.0000000   2.7928460   2.7928460
 AtZNuc=   1.0000000   6.0000000   6.0000000   8.0000000   6.0000000   1.0000000   6.0000000   1.0000000   1.0000000
 Leave Link  101 at Fri Sep 29 19:31:47 2023, MaxMem=  4026531840 cpu:               0.1 elap:               0.1
 (Enter /sw/arch/RHEL8/EB_production/2022/software/Gaussian/g16.c02/l202.exe)
 Symmetry turned off by external request.
 Stoichiometry    C28H36FeO2P2
 Framework group  C1[X(C28H36FeO2P2)]
 Deg. of freedom   201
 Full point group                 C1      NOp   1
                          Input orientation:                          
 ---------------------------------------------------------------------
 Center     Atomic      Atomic             Coordinates (Angstroms)
 Number     Number       Type             X           Y           Z
 ---------------------------------------------------------------------
      1          6           0       -3.537130   -0.782430   -1.256020
      2          6           0       -4.059780   -1.485690   -0.131380
      3          6           0       -5.004110   -0.640240    0.516270
      4          6           0       -5.063990    0.587110   -0.203590
      5          6           0       -4.160880    0.496130   -1.301190
      6          1           0       -2.790510   -1.157690   -1.955460
      7          1           0       -3.769200   -2.485330    0.189300
      8          1           0       -5.558200   -0.876400    1.425050
      9          1           0       -5.675340    1.452240    0.053930
     10          1           0       -3.978270    1.273190   -2.043520
     11         26           0       -3.161660    0.247050    0.477840
     12          6           0       -2.368120    1.997980    1.181580
     13          6           0       -1.359390    1.234600    0.518410
     14          6           0       -1.286500   -0.034210    1.191180
     15          6           0       -2.241340   -0.033930    2.262510
     16          6           0       -2.897570    1.225510    2.253510
     17          1           0       -2.711420    2.991380    0.896840
     18          1           0       -2.440740   -0.862790    2.939320
     19          1           0       -3.703660    1.529410    2.921150
     20          6           0       -0.520540    1.662760   -0.654820
     21          1           0       -0.505510    0.824410   -1.373050
     22         15           0       -0.005830   -1.229110    0.807320
     23          6           0       -1.170750    2.854750   -1.355830
     24          1           0       -0.736590    3.049090   -2.344790
     25          1           0       -2.236360    2.618410   -1.509330
     26          1           0       -1.116700    3.782160   -0.767710
     27         15           0        1.329480    1.741730   -0.186990
     28          6           0        2.162440    2.576650   -1.680810
     29          6           0        1.491890    2.798530    1.385300
     30          6           0        0.570880    4.019260    1.398740
     31          1           0       -0.490090    3.729720    1.399350
     32          1           0        0.753210    4.589650    2.328160
     33          1           0        0.755000    4.700970    0.554410
     34          6           0        2.940250    3.262960    1.559350
     35          1           0        3.036750    3.735210    2.553580
     36          1           0        3.653110    2.422830    1.525200
     37          1           0        3.237480    4.016610    0.814280
     38          6           0        1.151030    1.895620    2.580190
     39          1           0        1.315070    2.464730    3.513720
     40          1           0        0.102200    1.563560    2.571950
     41          1           0        1.802840    1.001330    2.603780
     42          6           0        1.715170    1.757030   -2.901460
     43          1           0        0.656420    1.906370   -3.161530
     44          1           0        2.313340    2.059000   -3.780000
     45          1           0        1.873950    0.675040   -2.737490
     46          6           0        3.690200    2.465940   -1.599420
     47          1           0        4.116310    2.975330   -0.724680
     48          1           0        4.038470    1.427500   -1.601310
     49          1           0        4.115080    2.952070   -2.496130
     50          6           0        1.840940    4.064820   -1.859460
     51          1           0        2.257160    4.398520   -2.827700
     52          1           0        0.770340    4.300470   -1.865110
     53          1           0        2.320630    4.675780   -1.077970
     54          6           0       -0.539190   -2.249270   -0.579320
     55          6           0       -1.185420   -3.448920   -0.715620
     56          8           0       -0.225510   -1.758060   -1.808790
     57          6           0       -1.277850   -3.696490   -2.118070
     58          1           0       -1.541400   -4.082860    0.093620
     59          6           0       -0.679800   -2.631980   -2.727530
     60          1           0       -1.729080   -4.557920   -2.608600
     61          1           0       -0.502400   -2.366680   -3.768080
     62          6           0       -0.042360   -2.357700    2.216780
     63          6           0       -0.061560   -2.105810    3.564970
     64          8           0        0.186760   -3.677530    2.005540
     65          6           0        0.148760   -3.362150    4.209960
     66          1           0       -0.198300   -1.134720    4.039040
     67          6           0        0.292030   -4.277140    3.208940
     68          1           0        0.182810   -3.557420    5.280830
     69          1           0        0.458610   -5.352480    3.191390
 ---------------------------------------------------------------------
 Rotational constants (GHZ):           0.1468198           0.1035395           0.0925145
 Leave Link  202 at Fri Sep 29 19:31:47 2023, MaxMem=  4026531840 cpu:               0.6 elap:               0.0
 (Enter /sw/arch/RHEL8/EB_production/2022/software/Gaussian/g16.c02/l301.exe)
 Standard basis: def2SVPP (5D, 7F)
 Ernie: Thresh=  0.10000D-02 Tol=  0.10000D-05 Strict=F.
   552 basis functions,  1039 primitive gaussians,   586 cartesian basis functions
   138 alpha electrons      138 beta electrons
       nuclear repulsion energy      4855.9820682851 Hartrees.
 IExCor= 1009 DFT=T Ex+Corr=PBE1PBE ExCW=0 ScaHFX=  0.250000
 ScaDFX=  0.750000  0.750000  1.000000  1.000000 ScalE2=  1.000000  1.000000
 IRadAn=      5 IRanWt=     -1 IRanGd=            0 ICorTp=0 IEmpDi=141
 NAtoms=   69 NActive=   69 NUniq=   69 SFac= 1.00D+00 NAtFMM=   60 NAOKFM=T Big=T
 Integral buffers will be    131072 words long.
 Raffenetti 2 integral format.
 Two-electron integral symmetry is turned off.
 R6Disp:  Grimme-D3(BJ) Dispersion energy=       -0.1037566126 Hartrees.
 Nuclear repulsion after empirical dispersion term =     4855.8783116726 Hartrees.
 Leave Link  301 at Fri Sep 29 19:31:47 2023, MaxMem=  4026531840 cpu:               0.1 elap:               0.0
 (Enter /sw/arch/RHEL8/EB_production/2022/software/Gaussian/g16.c02/l302.exe)
 NPDir=0 NMtPBC=     1 NCelOv=     1 NCel=       1 NClECP=     1 NCelD=      1
         NCelK=      1 NCelE2=     1 NClLst=     1 CellRange=     0.0.
 One-electron integrals computed using PRISM.
   1 Symmetry operations used in ECPInt.
 ECPInt:  NShTT=   38781 NPrTT=  162180 LenC2=   35322 LenP2D=   94926.
 LDataN:  DoStor=T MaxTD1= 4 Len=   56
 NBasis=   552 RedAO= T EigKep=  4.68D-04  NBF=   552
 NBsUse=   552 1.00D-06 EigRej= -1.00D+00 NBFU=   552
 Precomputing XC quadrature grid using
 IXCGrd= 4 IRadAn=           5 IRanWt=          -1 IRanGd=           0 AccXCQ= 0.00D+00.
 Generated NRdTot=       0 NPtTot=           0 NUsed=           0 NTot=          32
 NSgBfM=   580   579   579   580   580 MxSgAt=    69 MxSgA2=    69.
 Leave Link  302 at Fri Sep 29 19:31:48 2023, MaxMem=  4026531840 cpu:              17.9 elap:               0.9
 (Enter /sw/arch/RHEL8/EB_production/2022/software/Gaussian/g16.c02/l303.exe)
 DipDrv:  MaxL=1.
 Leave Link  303 at Fri Sep 29 19:31:48 2023, MaxMem=  4026531840 cpu:               0.4 elap:               0.1
 (Enter /sw/arch/RHEL8/EB_production/2022/software/Gaussian/g16.c02/l401.exe)
 ExpMin= 3.37D-02 ExpMax= 6.09D+04 ExpMxC= 9.15D+03 IAcc=3 IRadAn=         5 AccDes= 0.00D+00
 Harris functional with IExCor= 1009 and IRadAn=       5 diagonalized for initial guess.
 HarFok:  IExCor= 1009 AccDes= 0.00D+00 IRadAn=         5 IDoV= 1 UseB2=F ITyADJ=14
 ICtDFT=  3500011 ScaDFX=  1.000000  1.000000  1.000000  1.000000
 FoFCou: FMM=F IPFlag=           0 FMFlag=      100000 FMFlg1=        2001
         NFxFlg=           0 DoJE=T BraDBF=F KetDBF=T FulRan=T
         wScrn=  0.000000 ICntrl=       500 IOpCl=  0 I1Cent=   200000004 NGrid=           0
         NMat0=    1 NMatS0=      1 NMatT0=    0 NMatD0=    1 NMtDS0=    0 NMtDT0=    0
 Symmetry not used in FoFCou.
 Harris En= -3182.59183003968    
 JPrj=0 DoOrth=F DoCkMO=F.
 Leave Link  401 at Fri Sep 29 19:31:50 2023, MaxMem=  4026531840 cpu:              47.6 elap:               1.7
 (Enter /sw/arch/RHEL8/EB_production/2022/software/Gaussian/g16.c02/l502.exe)
 Two-electron integral symmetry not used.
 Closed shell SCF:
 Using DIIS extrapolation, IDIIS=  1040.
 NGot=  4026531840 LenX=  4025818646 LenY=  4025474664
 Requested convergence on RMS density matrix=1.00D-08 within  90 cycles.
 Requested convergence on MAX density matrix=1.00D-06.
 Requested convergence on             energy=1.00D-06.
 No special actions if energy rises.
 Fock matrices will be formed incrementally for  20 cycles.

 Cycle   1  Pass 1  IDiag  1:
 FoFJK:  IHMeth= 1 ICntrl=       0 DoSepK=F KAlg= 0 I1Cent=           0 FoldK=F
 IRaf= 990000000 NMat=       1 IRICut=       1 DoRegI=T DoRafI=F ISym2E= 0 IDoP0=0 IntGTp=1.
 FoFCou: FMM=T IPFlag=           0 FMFlag=      100000 FMFlg1=        2001
         NFxFlg=           0 DoJE=F BraDBF=F KetDBF=F FulRan=T
         wScrn=  0.000000 ICntrl=         0 IOpCl=  0 I1Cent=           0 NGrid=           0
         NMat0=    1 NMatS0=      1 NMatT0=    0 NMatD0=    1 NMtDS0=    0 NMtDT0=    0
 Symmetry not used in FoFCou.
 FMM levels:  10  Number of levels for PrismC:   9
 E= -3181.44204800912    
 DIIS: error= 2.37D-02 at cycle   1 NSaved=   1.
 NSaved= 1 IEnMin= 1 EnMin= -3181.44204800912     IErMin= 1 ErrMin= 2.37D-02
 ErrMax= 2.37D-02  0.00D+00 EMaxC= 1.00D-01 BMatC= 8.12D-01 BMatP= 8.12D-01
 IDIUse=3 WtCom= 7.63D-01 WtEn= 2.37D-01
 Coeff-Com:  0.100D+01
 Coeff-En:   0.100D+01
 Coeff:      0.100D+01
 Gap=     0.209 Goal=   None    Shift=    0.000
 GapD=    0.209 DampG=1.000 DampE=0.250 DampFc=0.2500 IDamp=-1.
 Damping current iteration by 2.50D-01
 RMSDP=4.65D-03 MaxDP=2.16D-01              OVMax= 1.94D-01

 Cycle   2  Pass 1  IDiag  1:
 RMSU=  1.12D-03    CP:  9.84D-01
 E= -3181.74266668655     Delta-E=       -0.300618677426 Rises=F Damp=T
 DIIS: error= 1.16D-02 at cycle   2 NSaved=   2.
 NSaved= 2 IEnMin= 2 EnMin= -3181.74266668655     IErMin= 2 ErrMin= 1.16D-02
 ErrMax= 1.16D-02  0.00D+00 EMaxC= 1.00D-01 BMatC= 1.95D-01 BMatP= 8.12D-01
 IDIUse=3 WtCom= 8.84D-01 WtEn= 1.16D-01
 Coeff-Com: -0.563D+00 0.156D+01
 Coeff-En:   0.000D+00 0.100D+01
 Coeff:     -0.498D+00 0.150D+01
 Gap=     0.239 Goal=   None    Shift=    0.000
 RMSDP=4.42D-03 MaxDP=2.67D-01 DE=-3.01D-01 OVMax= 3.77D-01

 Cycle   3  Pass 1  IDiag  1:
 RMSU=  4.37D-03    CP:  9.96D-01  1.52D+00
 E= -3181.00414082164     Delta-E=        0.738525864902 Rises=F Damp=F
 DIIS: error= 1.04D-01 at cycle   3 NSaved=   3.
 NSaved= 3 IEnMin= 2 EnMin= -3181.74266668655     IErMin= 2 ErrMin= 1.16D-02
 ErrMax= 1.04D-01  0.00D+00 EMaxC= 1.00D-01 BMatC= 2.06D+00 BMatP= 1.95D-01
 IDIUse=2 WtCom= 0.00D+00 WtEn= 1.00D+00
 Coeff-En:   0.000D+00 0.759D+00 0.241D+00
 Coeff:      0.000D+00 0.759D+00 0.241D+00
 Gap=     0.296 Goal=   None    Shift=    0.000
 RMSDP=6.44D-03 MaxDP=3.57D-01 DE= 7.39D-01 OVMax= 3.37D-01

 Cycle   4  Pass 1  IDiag  1:
 RMSU=  1.85D-03    CP:  9.29D-01  2.57D+00 -3.53D-01
 E= -3180.55337481703     Delta-E=        0.450766004619 Rises=F Damp=F
 DIIS: error= 8.68D-02 at cycle   4 NSaved=   4.
 NSaved= 4 IEnMin= 2 EnMin= -3181.74266668655     IErMin= 2 ErrMin= 1.16D-02
 ErrMax= 8.68D-02  0.00D+00 EMaxC= 1.00D-01 BMatC= 2.91D+00 BMatP= 1.95D-01
 IDIUse=2 WtCom= 0.00D+00 WtEn= 1.00D+00
 EnCoef did     1 forward-backward iterations
 Coeff-En:   0.423D-01 0.000D+00 0.520D+00 0.438D+00
 Coeff:      0.423D-01 0.000D+00 0.520D+00 0.438D+00
 Gap=     0.115 Goal=   None    Shift=    0.000
 RMSDP=2.66D-03 MaxDP=2.09D-01 DE= 4.51D-01 OVMax= 2.27D-01

 Cycle   5  Pass 1  IDiag  1:
 RMSU=  8.58D-04    CP:  9.67D-01  1.47D+00  6.00D-02  4.42D-01
 E= -3182.22950286094     Delta-E=       -1.676128043915 Rises=F Damp=F
 DIIS: error= 1.01D-02 at cycle   5 NSaved=   5.
 NSaved= 5 IEnMin= 5 EnMin= -3182.22950286094     IErMin= 5 ErrMin= 1.01D-02
 ErrMax= 1.01D-02  0.00D+00 EMaxC= 1.00D-01 BMatC= 7.79D-02 BMatP= 1.95D-01
 IDIUse=3 WtCom= 8.99D-01 WtEn= 1.01D-01
 Coeff-Com: -0.460D+00 0.605D+00 0.116D+00-0.762D-01 0.815D+00
 Coeff-En:   0.000D+00 0.000D+00 0.882D-01 0.000D+00 0.912D+00
 Coeff:     -0.414D+00 0.544D+00 0.113D+00-0.685D-01 0.825D+00
 Gap=     0.172 Goal=   None    Shift=    0.000
 RMSDP=8.52D-04 MaxDP=6.67D-02 DE=-1.68D+00 OVMax= 4.35D-02

 Cycle   6  Pass 1  IDiag  1:
 RMSU=  4.51D-04    CP:  9.66D-01  1.84D+00  1.79D-01  2.95D-01  9.53D-01
 E= -3182.28863987098     Delta-E=       -0.059137010041 Rises=F Damp=F
 DIIS: error= 4.76D-03 at cycle   6 NSaved=   6.
 NSaved= 6 IEnMin= 6 EnMin= -3182.28863987098     IErMin= 6 ErrMin= 4.76D-03
 ErrMax= 4.76D-03  0.00D+00 EMaxC= 1.00D-01 BMatC= 1.14D-02 BMatP= 7.79D-02
 IDIUse=3 WtCom= 9.52D-01 WtEn= 4.76D-02
 Coeff-Com: -0.311D+00 0.417D+00 0.597D-01-0.708D-01 0.503D+00 0.402D+00
 Coeff-En:   0.000D+00 0.000D+00 0.000D+00 0.000D+00 0.000D+00 0.100D+01
 Coeff:     -0.296D+00 0.397D+00 0.568D-01-0.674D-01 0.479D+00 0.430D+00
 Gap=     0.172 Goal=   None    Shift=    0.000
 RMSDP=3.03D-04 MaxDP=1.83D-02 DE=-5.91D-02 OVMax= 2.76D-02

 Cycle   7  Pass 1  IDiag  1:
 RMSU=  1.34D-04    CP:  9.67D-01  1.82D+00  1.65D-01  2.69D-01  1.03D+00
                    CP:  4.47D-01
 E= -3182.29806669168     Delta-E=       -0.009426820699 Rises=F Damp=F
 DIIS: error= 1.84D-03 at cycle   7 NSaved=   7.
 NSaved= 7 IEnMin= 7 EnMin= -3182.29806669168     IErMin= 7 ErrMin= 1.84D-03
 ErrMax= 1.84D-03  0.00D+00 EMaxC= 1.00D-01 BMatC= 1.60D-03 BMatP= 1.14D-02
 IDIUse=3 WtCom= 9.82D-01 WtEn= 1.84D-02
 Coeff-Com: -0.560D-01 0.772D-01 0.168D-01-0.243D-01 0.821D-01 0.192D+00
 Coeff-Com:  0.712D+00
 Coeff-En:   0.000D+00 0.000D+00 0.000D+00 0.000D+00 0.000D+00 0.000D+00
 Coeff-En:   0.100D+01
 Coeff:     -0.550D-01 0.758D-01 0.165D-01-0.238D-01 0.806D-01 0.188D+00
 Coeff:      0.717D+00
 Gap=     0.174 Goal=   None    Shift=    0.000
 RMSDP=8.68D-05 MaxDP=5.17D-03 DE=-9.43D-03 OVMax= 6.95D-03

 Cycle   8  Pass 1  IDiag  1:
 RMSU=  5.50D-05    CP:  9.67D-01  1.82D+00  1.70D-01  2.63D-01  1.03D+00
                    CP:  5.53D-01  7.05D-01
 E= -3182.29901001588     Delta-E=       -0.000943324198 Rises=F Damp=F
 DIIS: error= 6.90D-04 at cycle   8 NSaved=   8.
 NSaved= 8 IEnMin= 8 EnMin= -3182.29901001588     IErMin= 8 ErrMin= 6.90D-04
 ErrMax= 6.90D-04  0.00D+00 EMaxC= 1.00D-01 BMatC= 2.70D-04 BMatP= 1.60D-03
 IDIUse=3 WtCom= 9.93D-01 WtEn= 6.90D-03
 Coeff-Com:  0.277D-01-0.392D-01 0.172D-02-0.333D-02-0.425D-01 0.387D-01
 Coeff-Com:  0.443D+00 0.574D+00
 Coeff-En:   0.000D+00 0.000D+00 0.000D+00 0.000D+00 0.000D+00 0.000D+00
 Coeff-En:   0.000D+00 0.100D+01
 Coeff:      0.275D-01-0.389D-01 0.171D-02-0.330D-02-0.423D-01 0.384D-01
 Coeff:      0.440D+00 0.577D+00
 Gap=     0.175 Goal=   None    Shift=    0.000
 RMSDP=3.96D-05 MaxDP=3.43D-03 DE=-9.43D-04 OVMax= 2.87D-03

 Cycle   9  Pass 1  IDiag  1:
 RMSU=  2.27D-05    CP:  9.67D-01  1.82D+00  1.72D-01  2.61D-01  1.04D+00
                    CP:  5.37D-01  8.45D-01  6.10D-01
 E= -3182.29921067194     Delta-E=       -0.000200656066 Rises=F Damp=F
 DIIS: error= 1.53D-04 at cycle   9 NSaved=   9.
 NSaved= 9 IEnMin= 9 EnMin= -3182.29921067194     IErMin= 9 ErrMin= 1.53D-04
 ErrMax= 1.53D-04  0.00D+00 EMaxC= 1.00D-01 BMatC= 1.48D-05 BMatP= 2.70D-04
 IDIUse=3 WtCom= 9.98D-01 WtEn= 1.53D-03
 Coeff-Com:  0.199D-01-0.278D-01-0.124D-03-0.167D-03-0.306D-01 0.403D-02
 Coeff-Com:  0.181D+00 0.326D+00 0.528D+00
 Coeff-En:   0.000D+00 0.000D+00 0.000D+00 0.000D+00 0.000D+00 0.000D+00
 Coeff-En:   0.000D+00 0.000D+00 0.100D+01
 Coeff:      0.199D-01-0.278D-01-0.123D-03-0.167D-03-0.306D-01 0.402D-02
 Coeff:      0.181D+00 0.326D+00 0.528D+00
 Gap=     0.174 Goal=   None    Shift=    0.000
 RMSDP=1.29D-05 MaxDP=7.93D-04 DE=-2.01D-04 OVMax= 9.52D-04

 Cycle  10  Pass 1  IDiag  1:
 RMSU=  8.36D-06    CP:  9.67D-01  1.81D+00  1.73D-01  2.61D-01  1.04D+00
                    CP:  5.48D-01  8.25D-01  6.86D-01  7.17D-01
 E= -3182.29922395392     Delta-E=       -0.000013281977 Rises=F Damp=F
 DIIS: error= 4.86D-05 at cycle  10 NSaved=  10.
 NSaved=10 IEnMin=10 EnMin= -3182.29922395392     IErMin=10 ErrMin= 4.86D-05
 ErrMax= 4.86D-05  0.00D+00 EMaxC= 1.00D-01 BMatC= 1.06D-06 BMatP= 1.48D-05
 IDIUse=1 WtCom= 1.00D+00 WtEn= 0.00D+00
 Coeff-Com:  0.554D-02-0.749D-02-0.383D-03 0.327D-03-0.901D-02-0.376D-02
 Coeff-Com:  0.268D-01 0.779D-01 0.272D+00 0.638D+00
 Coeff:      0.554D-02-0.749D-02-0.383D-03 0.327D-03-0.901D-02-0.376D-02
 Coeff:      0.268D-01 0.779D-01 0.272D+00 0.638D+00
 Gap=     0.174 Goal=   None    Shift=    0.000
 RMSDP=3.44D-06 MaxDP=1.56D-04 DE=-1.33D-05 OVMax= 2.30D-04

 Cycle  11  Pass 1  IDiag  1:
 RMSU=  2.32D-06    CP:  9.67D-01  1.81D+00  1.73D-01  2.61D-01  1.04D+00
                    CP:  5.46D-01  8.32D-01  6.81D-01  7.92D-01  8.44D-01
 E= -3182.29922475368     Delta-E=       -0.000000799758 Rises=F Damp=F
 DIIS: error= 4.29D-05 at cycle  11 NSaved=  11.
 NSaved=11 IEnMin=11 EnMin= -3182.29922475368     IErMin=11 ErrMin= 4.29D-05
 ErrMax= 4.29D-05  0.00D+00 EMaxC= 1.00D-01 BMatC= 5.42D-07 BMatP= 1.06D-06
 IDIUse=1 WtCom= 1.00D+00 WtEn= 0.00D+00
 Coeff-Com:  0.111D-02-0.140D-02-0.283D-03 0.192D-03-0.203D-02-0.181D-02
 Coeff-Com:  0.892D-03 0.159D-01 0.107D+00 0.359D+00 0.521D+00
 Coeff:      0.111D-02-0.140D-02-0.283D-03 0.192D-03-0.203D-02-0.181D-02
 Coeff:      0.892D-03 0.159D-01 0.107D+00 0.359D+00 0.521D+00
 Gap=     0.174 Goal=   None    Shift=    0.000
 RMSDP=1.52D-06 MaxDP=8.01D-05 DE=-8.00D-07 OVMax= 9.74D-05

 Cycle  12  Pass 1  IDiag  1:
 RMSU=  9.56D-07    CP:  9.67D-01  1.81D+00  1.73D-01  2.61D-01  1.04D+00
                    CP:  5.46D-01  8.33D-01  6.85D-01  7.99D-01  8.79D-01
                    CP:  7.22D-01
 E= -3182.29922507334     Delta-E=       -0.000000319663 Rises=F Damp=F
 DIIS: error= 2.39D-05 at cycle  12 NSaved=  12.
 NSaved=12 IEnMin=12 EnMin= -3182.29922507334     IErMin=12 ErrMin= 2.39D-05
 ErrMax= 2.39D-05  0.00D+00 EMaxC= 1.00D-01 BMatC= 1.40D-07 BMatP= 5.42D-07
 IDIUse=1 WtCom= 1.00D+00 WtEn= 0.00D+00
 Coeff-Com: -0.220D-03 0.336D-03-0.157D-03 0.706D-04 0.260D-03-0.141D-03
 Coeff-Com: -0.228D-02-0.915D-03 0.239D-01 0.112D+00 0.251D+00 0.616D+00
 Coeff:     -0.220D-03 0.336D-03-0.157D-03 0.706D-04 0.260D-03-0.141D-03
 Coeff:     -0.228D-02-0.915D-03 0.239D-01 0.112D+00 0.251D+00 0.616D+00
 Gap=     0.174 Goal=   None    Shift=    0.000
 RMSDP=1.01D-06 MaxDP=5.01D-05 DE=-3.20D-07 OVMax= 7.46D-05

 Cycle  13  Pass 1  IDiag  1:
 RMSU=  3.98D-07    CP:  9.67D-01  1.82D+00  1.73D-01  2.61D-01  1.04D+00
                    CP:  5.46D-01  8.31D-01  6.87D-01  8.07D-01  8.94D-01
                    CP:  8.27D-01  1.10D+00
 E= -3182.29922516329     Delta-E=       -0.000000089949 Rises=F Damp=F
 DIIS: error= 8.50D-06 at cycle  13 NSaved=  13.
 NSaved=13 IEnMin=13 EnMin= -3182.29922516329     IErMin=13 ErrMin= 8.50D-06
 ErrMax= 8.50D-06  0.00D+00 EMaxC= 1.00D-01 BMatC= 1.93D-08 BMatP= 1.40D-07
 IDIUse=1 WtCom= 1.00D+00 WtEn= 0.00D+00
 Coeff-Com: -0.377D-03 0.489D-03-0.385D-04-0.331D-06 0.643D-03 0.488D-03
 Coeff-Com: -0.985D-03-0.386D-02-0.143D-01-0.357D-01-0.222D-01 0.303D+00
 Coeff-Com:  0.773D+00
 Coeff:     -0.377D-03 0.489D-03-0.385D-04-0.331D-06 0.643D-03 0.488D-03
 Coeff:     -0.985D-03-0.386D-02-0.143D-01-0.357D-01-0.222D-01 0.303D+00
 Coeff:      0.773D+00
 Gap=     0.174 Goal=   None    Shift=    0.000
 RMSDP=7.45D-07 MaxDP=3.97D-05 DE=-8.99D-08 OVMax= 6.80D-05

 Cycle  14  Pass 1  IDiag  1:
 RMSU=  2.30D-07    CP:  9.67D-01  1.82D+00  1.72D-01  2.61D-01  1.04D+00
                    CP:  5.46D-01  8.31D-01  6.87D-01  8.13D-01  9.15D-01
                    CP:  9.01D-01  1.37D+00  1.30D+00
 E= -3182.29922518386     Delta-E=       -0.000000020567 Rises=F Damp=F
 DIIS: error= 1.40D-06 at cycle  14 NSaved=  14.
 NSaved=14 IEnMin=14 EnMin= -3182.29922518386     IErMin=14 ErrMin= 1.40D-06
 ErrMax= 1.40D-06  0.00D+00 EMaxC= 1.00D-01 BMatC= 9.71D-10 BMatP= 1.93D-08
 IDIUse=1 WtCom= 1.00D+00 WtEn= 0.00D+00
 Coeff-Com: -0.108D-03 0.130D-03 0.177D-04-0.152D-04 0.201D-03 0.229D-03
 Coeff-Com:  0.139D-04-0.160D-02-0.124D-01-0.452D-01-0.783D-01-0.184D-01
 Coeff-Com:  0.397D+00 0.759D+00
 Coeff:     -0.108D-03 0.130D-03 0.177D-04-0.152D-04 0.201D-03 0.229D-03
 Coeff:      0.139D-04-0.160D-02-0.124D-01-0.452D-01-0.783D-01-0.184D-01
 Coeff:      0.397D+00 0.759D+00
 Gap=     0.174 Goal=   None    Shift=    0.000
 RMSDP=3.38D-07 MaxDP=2.79D-05 DE=-2.06D-08 OVMax= 4.60D-05

 Cycle  15  Pass 1  IDiag  1:
 RMSU=  1.15D-07    CP:  9.67D-01  1.82D+00  1.72D-01  2.61D-01  1.04D+00
                    CP:  5.46D-01  8.31D-01  6.88D-01  8.15D-01  9.23D-01
                    CP:  9.43D-01  1.60D+00  1.65D+00  1.17D+00
 E= -3182.29922518790     Delta-E=       -0.000000004040 Rises=F Damp=F
 DIIS: error= 1.73D-06 at cycle  15 NSaved=  15.
 NSaved=15 IEnMin=15 EnMin= -3182.29922518790     IErMin=14 ErrMin= 1.40D-06
 ErrMax= 1.73D-06  0.00D+00 EMaxC= 1.00D-01 BMatC= 9.18D-10 BMatP= 9.71D-10
 IDIUse=1 WtCom= 1.00D+00 WtEn= 0.00D+00
 Coeff-Com:  0.209D-04-0.310D-04 0.197D-04-0.829D-05-0.315D-04-0.107D-04
 Coeff-Com:  0.656D-04-0.224D-03-0.349D-02-0.148D-01-0.311D-01-0.610D-01
 Coeff-Com:  0.345D-01 0.351D+00 0.725D+00
 Coeff:      0.209D-04-0.310D-04 0.197D-04-0.829D-05-0.315D-04-0.107D-04
 Coeff:      0.656D-04-0.224D-03-0.349D-02-0.148D-01-0.311D-01-0.610D-01
 Coeff:      0.345D-01 0.351D+00 0.725D+00
 Gap=     0.174 Goal=   None    Shift=    0.000
 RMSDP=1.65D-07 MaxDP=1.41D-05 DE=-4.04D-09 OVMax= 2.48D-05

 Cycle  16  Pass 1  IDiag  1:
 RMSU=  6.58D-08    CP:  9.67D-01  1.82D+00  1.72D-01  2.61D-01  1.04D+00
                    CP:  5.46D-01  8.31D-01  6.88D-01  8.16D-01  9.24D-01
                    CP:  9.66D-01  1.68D+00  1.86D+00  1.47D+00  1.13D+00
 E= -3182.29922518949     Delta-E=       -0.000000001593 Rises=F Damp=F
 DIIS: error= 1.03D-06 at cycle  16 NSaved=  16.
 NSaved=16 IEnMin=16 EnMin= -3182.29922518949     IErMin=16 ErrMin= 1.03D-06
 ErrMax= 1.03D-06  0.00D+00 EMaxC= 1.00D-01 BMatC= 2.92D-10 BMatP= 9.18D-10
 IDIUse=1 WtCom= 1.00D+00 WtEn= 0.00D+00
 Coeff-Com:  0.406D-04-0.509D-04 0.867D-05-0.111D-05-0.698D-04-0.825D-04
 Coeff-Com: -0.272D-04 0.285D-03 0.203D-02 0.763D-02 0.128D-01-0.182D-01
 Coeff-Com: -0.125D+00-0.120D+00 0.368D+00 0.873D+00
 Coeff:      0.406D-04-0.509D-04 0.867D-05-0.111D-05-0.698D-04-0.825D-04
 Coeff:     -0.272D-04 0.285D-03 0.203D-02 0.763D-02 0.128D-01-0.182D-01
 Coeff:     -0.125D+00-0.120D+00 0.368D+00 0.873D+00
 Gap=     0.174 Goal=   None    Shift=    0.000
 RMSDP=1.38D-07 MaxDP=1.11D-05 DE=-1.59D-09 OVMax= 2.04D-05

 Cycle  17  Pass 1  IDiag  1:
 RMSU=  3.47D-08    CP:  9.67D-01  1.82D+00  1.72D-01  2.61D-01  1.04D+00
                    CP:  5.46D-01  8.31D-01  6.88D-01  8.16D-01  9.26D-01
                    CP:  9.83D-01  1.76D+00  2.00D+00  1.69D+00  1.56D+00
                    CP:  1.26D+00
 E= -3182.29922519004     Delta-E=       -0.000000000547 Rises=F Damp=F
 DIIS: error= 2.15D-07 at cycle  17 NSaved=  17.
 NSaved=17 IEnMin=17 EnMin= -3182.29922519004     IErMin=17 ErrMin= 2.15D-07
 ErrMax= 2.15D-07  0.00D+00 EMaxC= 1.00D-01 BMatC= 3.26D-11 BMatP= 2.92D-10
 IDIUse=1 WtCom= 1.00D+00 WtEn= 0.00D+00
 Coeff-Com:  0.144D-04-0.165D-04 0.122D-05 0.850D-06-0.239D-04-0.339D-04
 Coeff-Com: -0.618D-05 0.208D-03 0.190D-02 0.812D-02 0.165D-01 0.822D-02
 Coeff-Com: -0.848D-01-0.185D+00-0.114D-01 0.526D+00 0.720D+00
 Coeff:      0.144D-04-0.165D-04 0.122D-05 0.850D-06-0.239D-04-0.339D-04
 Coeff:     -0.618D-05 0.208D-03 0.190D-02 0.812D-02 0.165D-01 0.822D-02
 Coeff:     -0.848D-01-0.185D+00-0.114D-01 0.526D+00 0.720D+00
 Gap=     0.174 Goal=   None    Shift=    0.000
 RMSDP=6.91D-08 MaxDP=5.63D-06 DE=-5.47D-10 OVMax= 1.05D-05

 Cycle  18  Pass 1  IDiag  1:
 RMSU=  1.42D-08    CP:  9.67D-01  1.82D+00  1.72D-01  2.61D-01  1.04D+00
                    CP:  5.46D-01  8.31D-01  6.88D-01  8.16D-01  9.26D-01
                    CP:  9.92D-01  1.79D+00  2.08D+00  1.80D+00  1.73D+00
                    CP:  1.54D+00  7.97D-01
 E= -3182.29922519009     Delta-E=       -0.000000000052 Rises=F Damp=F
 DIIS: error= 9.05D-08 at cycle  18 NSaved=  18.
 NSaved=18 IEnMin=18 EnMin= -3182.29922519009     IErMin=18 ErrMin= 9.05D-08
 ErrMax= 9.05D-08  0.00D+00 EMaxC= 1.00D-01 BMatC= 4.73D-12 BMatP= 3.26D-11
 IDIUse=1 WtCom= 1.00D+00 WtEn= 0.00D+00
 Coeff-Com:  0.789D-06-0.261D-06-0.189D-08 0.226D-06-0.428D-06-0.208D-05
 Coeff-Com:  0.133D-04 0.576D-04 0.490D-03 0.231D-02 0.522D-02 0.432D-02
 Coeff-Com: -0.229D-01-0.646D-01-0.439D-01 0.135D+00 0.329D+00 0.655D+00
 Coeff:      0.789D-06-0.261D-06-0.189D-08 0.226D-06-0.428D-06-0.208D-05
 Coeff:      0.133D-04 0.576D-04 0.490D-03 0.231D-02 0.522D-02 0.432D-02
 Coeff:     -0.229D-01-0.646D-01-0.439D-01 0.135D+00 0.329D+00 0.655D+00
 Gap=     0.174 Goal=   None    Shift=    0.000
 RMSDP=1.28D-08 MaxDP=8.86D-07 DE=-5.18D-11 OVMax= 1.92D-06

 Cycle  19  Pass 1  IDiag  1:
 RMSU=  5.27D-09    CP:  9.67D-01  1.82D+00  1.72D-01  2.61D-01  1.04D+00
                    CP:  5.46D-01  8.31D-01  6.88D-01  8.16D-01  9.26D-01
                    CP:  9.94D-01  1.80D+00  2.09D+00  1.81D+00  1.76D+00
                    CP:  1.57D+00  8.88D-01  8.29D-01
 E= -3182.29922519008     Delta-E=        0.000000000005 Rises=F Damp=F
 DIIS: error= 2.71D-08 at cycle  19 NSaved=  19.
 NSaved=19 IEnMin=18 EnMin= -3182.29922519009     IErMin=19 ErrMin= 2.71D-08
 ErrMax= 2.71D-08  0.00D+00 EMaxC= 1.00D-01 BMatC= 6.07D-13 BMatP= 4.73D-12
 IDIUse=1 WtCom= 1.00D+00 WtEn= 0.00D+00
 Coeff-Com: -0.671D-06 0.103D-05-0.120D-06 0.565D-07 0.180D-05 0.247D-05
 Coeff-Com:  0.113D-04 0.157D-04 0.788D-04 0.452D-03 0.119D-02 0.139D-02
 Coeff-Com: -0.448D-02-0.172D-01-0.228D-01 0.242D-01 0.114D+00 0.374D+00
 Coeff-Com:  0.529D+00
 Coeff:     -0.671D-06 0.103D-05-0.120D-06 0.565D-07 0.180D-05 0.247D-05
 Coeff:      0.113D-04 0.157D-04 0.788D-04 0.452D-03 0.119D-02 0.139D-02
 Coeff:     -0.448D-02-0.172D-01-0.228D-01 0.242D-01 0.114D+00 0.374D+00
 Coeff:      0.529D+00
 Gap=     0.174 Goal=   None    Shift=    0.000
 RMSDP=3.25D-09 MaxDP=1.77D-07 DE= 5.46D-12 OVMax= 4.08D-07

 SCF Done:  E(RPBE1PBE) =  -3182.29922519     A.U. after   19 cycles
            NFock= 19  Conv=0.33D-08     -V/T= 2.0051
 KE= 3.166113895853D+03 PE=-1.720973332640D+04 EE= 6.005441893686D+03
 Leave Link  502 at Fri Sep 29 19:33:19 2023, MaxMem=  4026531840 cpu:            2635.7 elap:              89.3
 (Enter /sw/arch/RHEL8/EB_production/2022/software/Gaussian/g16.c02/l508.exe)
 QCSCF skips out because SCF is already converged.
 Leave Link  508 at Fri Sep 29 19:33:19 2023, MaxMem=  4026531840 cpu:               0.0 elap:               0.0
 (Enter /sw/arch/RHEL8/EB_production/2022/software/Gaussian/g16.c02/l601.exe)
 Copying SCF densities to generalized density rwf, IOpCl= 0 IROHF=0.

 **********************************************************************

            Population analysis using the SCF Density.

 **********************************************************************

 Alpha  occ. eigenvalues -- -256.34939 -77.20306 -77.17053 -30.12412 -25.97265
 Alpha  occ. eigenvalues --  -25.95361 -25.95357 -19.28680 -19.28080 -10.28568
 Alpha  occ. eigenvalues --  -10.28543 -10.28490 -10.27762 -10.25452 -10.24805
 Alpha  occ. eigenvalues --  -10.24731 -10.24558 -10.24462 -10.24430 -10.24375
 Alpha  occ. eigenvalues --  -10.24225 -10.24016 -10.23966 -10.23935 -10.23674
 Alpha  occ. eigenvalues --  -10.23622 -10.23611 -10.23418 -10.23104 -10.22855
 Alpha  occ. eigenvalues --  -10.21877 -10.21636 -10.21457 -10.21276 -10.21056
 Alpha  occ. eigenvalues --  -10.21018 -10.20702  -6.61385  -6.57969  -4.75469
 Alpha  occ. eigenvalues --   -4.75412  -4.74877  -4.72037  -4.71996  -4.71454
 Alpha  occ. eigenvalues --   -3.45616  -2.24616  -2.19835  -2.19825  -1.14346
 Alpha  occ. eigenvalues --   -1.13892  -0.92245  -0.90247  -0.83596  -0.82128
 Alpha  occ. eigenvalues --   -0.81633  -0.81594  -0.80085  -0.79422  -0.76201
 Alpha  occ. eigenvalues --   -0.73958  -0.72779  -0.72645  -0.71859  -0.69819
 Alpha  occ. eigenvalues --   -0.69462  -0.68604  -0.68498  -0.66122  -0.65465
 Alpha  occ. eigenvalues --   -0.62349  -0.61739  -0.60669  -0.57333  -0.56997
 Alpha  occ. eigenvalues --   -0.56680  -0.55601  -0.55400  -0.55299  -0.55130
 Alpha  occ. eigenvalues --   -0.55004  -0.54026  -0.52900  -0.51252  -0.49640
 Alpha  occ. eigenvalues --   -0.48094  -0.47560  -0.47431  -0.46485  -0.45564
 Alpha  occ. eigenvalues --   -0.45370  -0.44902  -0.44128  -0.43886  -0.43487
 Alpha  occ. eigenvalues --   -0.43089  -0.42824  -0.42200  -0.42165  -0.41857
 Alpha  occ. eigenvalues --   -0.41828  -0.41368  -0.41017  -0.40651  -0.40300
 Alpha  occ. eigenvalues --   -0.39956  -0.39538  -0.39348  -0.39180  -0.39110
 Alpha  occ. eigenvalues --   -0.38967  -0.38345  -0.38037  -0.37970  -0.37387
 Alpha  occ. eigenvalues --   -0.37096  -0.36878  -0.36610  -0.36100  -0.35057
 Alpha  occ. eigenvalues --   -0.34226  -0.33377  -0.32936  -0.31326  -0.30203
 Alpha  occ. eigenvalues --   -0.29682  -0.29343  -0.28678  -0.28130  -0.27869
 Alpha  occ. eigenvalues --   -0.26348  -0.25616  -0.25026  -0.24279  -0.22166
 Alpha  occ. eigenvalues --   -0.21709  -0.21352  -0.17822
 Alpha virt. eigenvalues --   -0.00394  -0.00291   0.00103   0.00912   0.03027
 Alpha virt. eigenvalues --    0.04440   0.05450   0.05765   0.06470   0.06683
 Alpha virt. eigenvalues --    0.07016   0.07203   0.07589   0.08085   0.08794
 Alpha virt. eigenvalues --    0.08902   0.09238   0.09585   0.09972   0.10379
 Alpha virt. eigenvalues --    0.10746   0.10940   0.11530   0.11666   0.12040
 Alpha virt. eigenvalues --    0.12175   0.12826   0.13279   0.13601   0.13744
 Alpha virt. eigenvalues --    0.13959   0.14309   0.14464   0.15035   0.15247
 Alpha virt. eigenvalues --    0.15753   0.15794   0.16151   0.16457   0.16957
 Alpha virt. eigenvalues --    0.17217   0.17502   0.18019   0.18423   0.18938
 Alpha virt. eigenvalues --    0.18952   0.19391   0.19938   0.20470   0.20538
 Alpha virt. eigenvalues --    0.20847   0.21186   0.21331   0.21922   0.22557
 Alpha virt. eigenvalues --    0.22980   0.23193   0.23766   0.23916   0.24157
 Alpha virt. eigenvalues --    0.24390   0.24879   0.25329   0.25652   0.26546
 Alpha virt. eigenvalues --    0.27334   0.27488   0.28508   0.29429   0.30053
 Alpha virt. eigenvalues --    0.30605   0.31007   0.31668   0.32292   0.32899
 Alpha virt. eigenvalues --    0.33929   0.34155   0.35008   0.35056   0.36801
 Alpha virt. eigenvalues --    0.37270   0.38148   0.39678   0.40132   0.40760
 Alpha virt. eigenvalues --    0.41570   0.41930   0.42400   0.42691   0.43113
 Alpha virt. eigenvalues --    0.43965   0.44308   0.44550   0.44812   0.45522
 Alpha virt. eigenvalues --    0.45684   0.45883   0.46623   0.47117   0.47391
 Alpha virt. eigenvalues --    0.48083   0.48759   0.49067   0.50246   0.50431
 Alpha virt. eigenvalues --    0.50684   0.51115   0.51761   0.52449   0.52693
 Alpha virt. eigenvalues --    0.53051   0.53214   0.54324   0.54785   0.55296
 Alpha virt. eigenvalues --    0.55653   0.56069   0.56780   0.57295   0.58226
 Alpha virt. eigenvalues --    0.58883   0.59565   0.59785   0.60239   0.60466
 Alpha virt. eigenvalues --    0.61151   0.62131   0.62552   0.62756   0.63241
 Alpha virt. eigenvalues --    0.63848   0.64030   0.64452   0.64872   0.65210
 Alpha virt. eigenvalues --    0.65667   0.66100   0.67096   0.67298   0.67457
 Alpha virt. eigenvalues --    0.67972   0.68424   0.68884   0.69321   0.69538
 Alpha virt. eigenvalues --    0.69770   0.70150   0.70368   0.70602   0.70757
 Alpha virt. eigenvalues --    0.71121   0.71419   0.71619   0.71714   0.72189
 Alpha virt. eigenvalues --    0.72508   0.72589   0.72867   0.73168   0.73338
 Alpha virt. eigenvalues --    0.73624   0.73776   0.73972   0.74277   0.74464
 Alpha virt. eigenvalues --    0.74921   0.75234   0.75571   0.75748   0.76095
 Alpha virt. eigenvalues --    0.76454   0.76700   0.76804   0.76928   0.77154
 Alpha virt. eigenvalues --    0.77488   0.77601   0.78414   0.78655   0.79168
 Alpha virt. eigenvalues --    0.79402   0.79680   0.80058   0.80211   0.80768
 Alpha virt. eigenvalues --    0.80916   0.82129   0.82353   0.82987   0.83257
 Alpha virt. eigenvalues --    0.83465   0.83967   0.84729   0.85007   0.85466
 Alpha virt. eigenvalues --    0.86236   0.86905   0.86991   0.87658   0.87734
 Alpha virt. eigenvalues --    0.88571   0.89670   0.90198   0.90721   0.91490
 Alpha virt. eigenvalues --    0.91939   0.92188   0.92550   0.92938   0.93906
 Alpha virt. eigenvalues --    0.94665   0.95020   0.95777   0.96444   0.96606
 Alpha virt. eigenvalues --    0.98206   0.98536   1.00268   1.00722   1.01308
 Alpha virt. eigenvalues --    1.02389   1.04104   1.04453   1.05452   1.05608
 Alpha virt. eigenvalues --    1.07084   1.07628   1.08946   1.09725   1.10425
 Alpha virt. eigenvalues --    1.11214   1.12143   1.13040   1.13927   1.15115
 Alpha virt. eigenvalues --    1.15489   1.16524   1.17312   1.18340   1.19124
 Alpha virt. eigenvalues --    1.20231   1.21793   1.22845   1.23437   1.24387
 Alpha virt. eigenvalues --    1.25276   1.25487   1.25720   1.26512   1.27727
 Alpha virt. eigenvalues --    1.28868   1.30690   1.31800   1.32115   1.33258
 Alpha virt. eigenvalues --    1.33622   1.34837   1.35831   1.38965   1.40771
 Alpha virt. eigenvalues --    1.41326   1.42338   1.43386   1.43537   1.44942
 Alpha virt. eigenvalues --    1.45202   1.46456   1.47476   1.48690   1.49377
 Alpha virt. eigenvalues --    1.50413   1.51842   1.52599   1.53670   1.54892
 Alpha virt. eigenvalues --    1.58322   1.60241   1.61169   1.64973   1.65600
 Alpha virt. eigenvalues --    1.67561   1.68735   1.70392   1.70973   1.74253
 Alpha virt. eigenvalues --    1.75442   1.77095   1.78295   1.78870   1.80828
 Alpha virt. eigenvalues --    1.82787   1.83038   1.83258   1.85384   1.85454
 Alpha virt. eigenvalues --    1.86496   1.87540   1.87958   1.88168   1.89425
 Alpha virt. eigenvalues --    1.90363   1.91057   1.91556   1.92331   1.92938
 Alpha virt. eigenvalues --    1.93894   1.94207   1.94817   1.95174   1.95470
 Alpha virt. eigenvalues --    1.96239   1.96621   1.97208   1.97822   1.98356
 Alpha virt. eigenvalues --    1.99076   1.99428   2.00311   2.01733   2.01788
 Alpha virt. eigenvalues --    2.04180   2.04626   2.05377   2.05546   2.06481
 Alpha virt. eigenvalues --    2.07115   2.08043   2.09201   2.09952   2.10906
 Alpha virt. eigenvalues --    2.12070   2.12375   2.12982   2.13877   2.15122
 Alpha virt. eigenvalues --    2.16096   2.16309   2.16734   2.17189   2.17735
 Alpha virt. eigenvalues --    2.18409   2.18919   2.19061   2.19986   2.20596
 Alpha virt. eigenvalues --    2.21706   2.22074   2.22698   2.24005   2.24117
 Alpha virt. eigenvalues --    2.24735   2.25761   2.26286   2.26359   2.27193
 Alpha virt. eigenvalues --    2.28715   2.29273   2.29606   2.30049   2.31282
 Alpha virt. eigenvalues --    2.32814   2.34626   2.37171   2.38791   2.39757
 Alpha virt. eigenvalues --    2.40862   2.43907   2.44984   2.47654   2.48476
 Alpha virt. eigenvalues --    2.48807   2.49227   2.49364   2.49778   2.50459
 Alpha virt. eigenvalues --    2.50893   2.51280   2.51681   2.53121   2.53505
 Alpha virt. eigenvalues --    2.54766   2.55299   2.61518   2.64055   2.68104
 Alpha virt. eigenvalues --    2.68768   2.69543   2.69853   2.70606   2.71420
 Alpha virt. eigenvalues --    2.72152   2.73318   2.75705   2.79241   2.83119
 Alpha virt. eigenvalues --    2.84768   2.88490   2.88954   2.89008   2.89115
 Alpha virt. eigenvalues --    2.91962   2.93973   2.96156   2.96717   2.97237
 Alpha virt. eigenvalues --    2.97583   3.00659   3.03599   3.09776   3.11499
 Alpha virt. eigenvalues --    3.32244   3.33159   3.58041   3.59603
          Condensed to atoms (all electrons):
 Mulliken charges:
               1
     1  C   -0.115076
     2  C   -0.082010
     3  C   -0.066922
     4  C   -0.082526
     5  C   -0.097097
     6  H    0.136686
     7  H    0.120063
     8  H    0.115984
     9  H    0.114915
    10  H    0.115231
    11  Fe  -0.221644
    12  C   -0.099859
    13  C   -0.042730
    14  C   -0.174912
    15  C   -0.092014
    16  C   -0.040544
    17  H    0.107238
    18  H    0.122933
    19  H    0.110122
    20  C   -0.337001
    21  H    0.168956
    22  P    0.423021
    23  C   -0.337975
    24  H    0.152257
    25  H    0.148125
    26  H    0.136545
    27  P    0.347607
    28  C   -0.422328
    29  C   -0.439775
    30  C   -0.291656
    31  H    0.154177
    32  H    0.107884
    33  H    0.130972
    34  C   -0.290470
    35  H    0.117551
    36  H    0.141118
    37  H    0.144008
    38  C   -0.314504
    39  H    0.113589
    40  H    0.194629
    41  H    0.146970
    42  C   -0.304051
    43  H    0.138495
    44  H    0.121247
    45  H    0.148461
    46  C   -0.271648
    47  H    0.128753
    48  H    0.131361
    49  H    0.115289
    50  C   -0.287772
    51  H    0.109489
    52  H    0.133670
    53  H    0.138432
    54  C    0.022490
    55  C   -0.164208
    56  O   -0.235295
    57  C   -0.145859
    58  H    0.118746
    59  C    0.037036
    60  H    0.111582
    61  H    0.122421
    62  C    0.005832
    63  C   -0.201888
    64  O   -0.234477
    65  C   -0.137259
    66  H    0.120301
    67  C    0.029613
    68  H    0.109040
    69  H    0.118661
 Sum of Mulliken charges =  -0.00000
 Mulliken charges with hydrogens summed into heavy atoms:
               1
     1  C    0.021610
     2  C    0.038053
     3  C    0.049062
     4  C    0.032389
     5  C    0.018134
    11  Fe  -0.221644
    12  C    0.007379
    13  C   -0.042730
    14  C   -0.174912
    15  C    0.030919
    16  C    0.069578
    20  C   -0.168045
    22  P    0.423021
    23  C    0.098953
    27  P    0.347607
    28  C   -0.422328
    29  C   -0.439775
    30  C    0.101377
    34  C    0.112207
    38  C    0.140685
    42  C    0.104151
    46  C    0.103755
    50  C    0.093820
    54  C    0.022490
    55  C   -0.045463
    56  O   -0.235295
    57  C   -0.034277
    59  C    0.159457
    62  C    0.005832
    63  C   -0.081587
    64  O   -0.234477
    65  C   -0.028219
    67  C    0.148275
 Electronic spatial extent (au):  <R**2>=          14735.5730
 Charge=             -0.0000 electrons
 Dipole moment (field-independent basis, Debye):
    X=             -1.8324    Y=              0.3615    Z=              0.0544  Tot=              1.8685
 Quadrupole moment (field-independent basis, Debye-Ang):
   XX=           -223.2704   YY=           -208.4566   ZZ=           -207.5521
   XY=              0.3576   XZ=             -4.9924   YZ=             -2.3425
 Traceless Quadrupole moment (field-independent basis, Debye-Ang):
   XX=            -10.1774   YY=              4.6364   ZZ=              5.5409
   XY=              0.3576   XZ=             -4.9924   YZ=             -2.3425
 Octapole moment (field-independent basis, Debye-Ang**2):
  XXX=            418.1792  YYY=           -195.3001  ZZZ=           -179.9789  XYY=            119.1370
  XXY=            -14.5798  XXZ=            -34.9807  XZZ=            129.4379  YZZ=            -77.2046
  YYZ=            -49.3110  XYZ=             -3.0676
 Hexadecapole moment (field-independent basis, Debye-Ang**3):
 XXXX=          -7438.2759 YYYY=          -7518.5609 ZZZZ=          -4505.8111 XXXY=          -1124.1659
 XXXZ=            -12.5914 YYYX=           -954.2698 YYYZ=            434.4621 ZZZX=            187.2347
 ZZZY=            478.9957 XXYY=          -2477.5861 XXZZ=          -2020.0150 YYZZ=          -1960.0211
 XXYZ=            180.0822 YYXZ=            112.1733 ZZXY=           -328.3018
 N-N= 4.855878311673D+03 E-N=-1.720973333368D+04  KE= 3.166113895853D+03
 No NMR shielding tensors so no spin-rotation constants.
 Leave Link  601 at Fri Sep 29 19:33:19 2023, MaxMem=  4026531840 cpu:               4.2 elap:               0.4
 (Enter /sw/arch/RHEL8/EB_production/2022/software/Gaussian/g16.c02/l607.exe)
 ******************************Gaussian NBO Version 3.1******************************
             N A T U R A L   A T O M I C   O R B I T A L   A N D
          N A T U R A L   B O N D   O R B I T A L   A N A L Y S I S
 ******************************Gaussian NBO Version 3.1******************************
       /RESON  / : Allow strongly delocalized NBO set

 Analyzing the SCF density

 Job title: Cisa                                                            

 Storage needed:    929016 in NPA,   1225257 in NBO (4026506517 available)


 NATURAL POPULATIONS:  Natural atomic orbital occupancies 
                                                          
   NAO  Atom  No  lang   Type(AO)    Occupancy      Energy
 ----------------------------------------------------------
     1    C    1  S      Cor( 1S)     1.99869     -10.09948
     2    C    1  S      Val( 2S)     0.94907      -0.15892
     3    C    1  S      Ryd( 3S)     0.00309       0.84838
     4    C    1  px     Val( 2p)     1.14320      -0.08538
     5    C    1  px     Ryd( 3p)     0.00371       0.86374
     6    C    1  py     Val( 2p)     1.04763      -0.06537
     7    C    1  py     Ryd( 3p)     0.00647       0.71113
     8    C    1  pz     Val( 2p)     1.07756      -0.08265
     9    C    1  pz     Ryd( 3p)     0.00635       0.85046
    10    C    1  dxy    Ryd( 3d)     0.00089       2.16189
    11    C    1  dxz    Ryd( 3d)     0.00094       2.17058
    12    C    1  dyz    Ryd( 3d)     0.00079       2.23198
    13    C    1  dx2y2  Ryd( 3d)     0.00072       2.14671
    14    C    1  dz2    Ryd( 3d)     0.00092       2.16529
 
    15    C    2  S      Cor( 1S)     1.99868     -10.09995
    16    C    2  S      Val( 2S)     0.95080      -0.16087
    17    C    2  S      Ryd( 3S)     0.00290       0.82487
    18    C    2  px     Val( 2p)     1.05125      -0.08334
    19    C    2  px     Ryd( 3p)     0.00456       0.68751
    20    C    2  py     Val( 2p)     1.15232      -0.08072
    21    C    2  py     Ryd( 3p)     0.00634       0.96640
    22    C    2  pz     Val( 2p)     1.05956      -0.07116
    23    C    2  pz     Ryd( 3p)     0.00490       0.67169
    24    C    2  dxy    Ryd( 3d)     0.00085       2.24145
    25    C    2  dxz    Ryd( 3d)     0.00053       2.20235
    26    C    2  dyz    Ryd( 3d)     0.00093       2.24808
    27    C    2  dx2y2  Ryd( 3d)     0.00102       2.09925
    28    C    2  dz2    Ryd( 3d)     0.00096       2.05833
 
    29    C    3  S      Cor( 1S)     1.99866     -10.10324
    30    C    3  S      Val( 2S)     0.95211      -0.16457
    31    C    3  S      Ryd( 3S)     0.00275       0.81689
    32    C    3  px     Val( 2p)     1.04540      -0.09944
    33    C    3  px     Ryd( 3p)     0.00607       0.69786
    34    C    3  py     Val( 2p)     1.04000      -0.06590
    35    C    3  py     Ryd( 3p)     0.00578       0.63474
    36    C    3  pz     Val( 2p)     1.17719      -0.07886
    37    C    3  pz     Ryd( 3p)     0.00381       0.90369
    38    C    3  dxy    Ryd( 3d)     0.00082       2.17600
    39    C    3  dxz    Ryd( 3d)     0.00091       2.15636
    40    C    3  dyz    Ryd( 3d)     0.00086       2.20887
    41    C    3  dx2y2  Ryd( 3d)     0.00093       2.12012
    42    C    3  dz2    Ryd( 3d)     0.00078       2.13744
 
    43    C    4  S      Cor( 1S)     1.99867     -10.10373
    44    C    4  S      Val( 2S)     0.95185      -0.16534
    45    C    4  S      Ryd( 3S)     0.00282       0.81173
    46    C    4  px     Val( 2p)     1.05458      -0.10127
    47    C    4  px     Ryd( 3p)     0.00623       0.72153
    48    C    4  py     Val( 2p)     1.15887      -0.06985
    49    C    4  py     Ryd( 3p)     0.00470       0.87845
    50    C    4  pz     Val( 2p)     1.05407      -0.07508
    51    C    4  pz     Ryd( 3p)     0.00496       0.63627
    52    C    4  dxy    Ryd( 3d)     0.00105       2.09450
    53    C    4  dxz    Ryd( 3d)     0.00075       2.22247
    54    C    4  dyz    Ryd( 3d)     0.00068       2.21940
    55    C    4  dx2y2  Ryd( 3d)     0.00080       2.21032
    56    C    4  dz2    Ryd( 3d)     0.00099       2.04568
 
    57    C    5  S      Cor( 1S)     1.99869     -10.10317
    58    C    5  S      Val( 2S)     0.94946      -0.16269
    59    C    5  S      Ryd( 3S)     0.00303       0.83757
    60    C    5  px     Val( 2p)     1.04710      -0.08789
    61    C    5  px     Ryd( 3p)     0.00478       0.64067
    62    C    5  py     Val( 2p)     1.14152      -0.06890
    63    C    5  py     Ryd( 3p)     0.00484       0.83547
    64    C    5  pz     Val( 2p)     1.08493      -0.08853
    65    C    5  pz     Ryd( 3p)     0.00643       0.81895
    66    C    5  dxy    Ryd( 3d)     0.00064       2.18674
    67    C    5  dxz    Ryd( 3d)     0.00068       2.25265
    68    C    5  dyz    Ryd( 3d)     0.00109       2.12751
    69    C    5  dx2y2  Ryd( 3d)     0.00096       2.10147
    70    C    5  dz2    Ryd( 3d)     0.00090       2.14137
 
    71    H    6  S      Val( 1S)     0.75056       0.12160
    72    H    6  S      Ryd( 2S)     0.00335       0.51867
 
    73    H    7  S      Val( 1S)     0.74969       0.11516
    74    H    7  S      Ryd( 2S)     0.00134       0.41796
 
    75    H    8  S      Val( 1S)     0.75278       0.10667
    76    H    8  S      Ryd( 2S)     0.00115       0.35523
 
    77    H    9  S      Val( 1S)     0.75338       0.10598
    78    H    9  S      Ryd( 2S)     0.00114       0.35401
 
    79    H   10  S      Val( 1S)     0.75598       0.10530
    80    H   10  S      Ryd( 2S)     0.00134       0.38512
 
    81   Fe   11  S      Cor( 1S)     2.00000    -236.24421
    82   Fe   11  S      Cor( 2S)     1.99999     -48.60739
    83   Fe   11  S      Cor( 3S)     1.99699      -4.89885
    84   Fe   11  S      Val( 4S)     0.14008       0.19419
    85   Fe   11  S      Ryd( 5S)     0.00631       0.26086
    86   Fe   11  px     Cor( 2p)     1.99999     -25.75388
    87   Fe   11  px     Cor( 3p)     1.99814      -2.39587
    88   Fe   11  px     Val( 4p)     0.21426       0.40979
    89   Fe   11  py     Cor( 2p)     1.99999     -25.74673
    90   Fe   11  py     Cor( 3p)     1.99910      -2.38661
    91   Fe   11  py     Val( 4p)     0.21135       0.31429
    92   Fe   11  pz     Cor( 2p)     1.99999     -25.75122
    93   Fe   11  pz     Cor( 3p)     1.99874      -2.39364
    94   Fe   11  pz     Val( 4p)     0.22269       0.36466
    95   Fe   11  dxy    Val( 3d)     1.46899      -0.18579
    96   Fe   11  dxy    Ryd( 4d)     0.00227       1.36058
    97   Fe   11  dxz    Val( 3d)     1.74635      -0.22453
    98   Fe   11  dxz    Ryd( 4d)     0.00270       1.29362
    99   Fe   11  dyz    Val( 3d)     1.53091      -0.18576
   100   Fe   11  dyz    Ryd( 4d)     0.00201       1.32948
   101   Fe   11  dx2y2  Val( 3d)     1.32031      -0.17081
   102   Fe   11  dx2y2  Ryd( 4d)     0.00211       1.36656
   103   Fe   11  dz2    Val( 3d)     1.11719      -0.15265
   104   Fe   11  dz2    Ryd( 4d)     0.00245       1.38394
 
   105    C   12  S      Cor( 1S)     1.99866     -10.09950
   106    C   12  S      Val( 2S)     0.93035      -0.15206
   107    C   12  S      Ryd( 3S)     0.00275       0.84255
   108    C   12  px     Val( 2p)     1.07394      -0.08589
   109    C   12  px     Ryd( 3p)     0.00412       0.72969
   110    C   12  py     Val( 2p)     1.16103      -0.09488
   111    C   12  py     Ryd( 3p)     0.00631       1.00997
   112    C   12  pz     Val( 2p)     1.05839      -0.08424
   113    C   12  pz     Ryd( 3p)     0.00465       0.73866
   114    C   12  dxy    Ryd( 3d)     0.00088       2.28151
   115    C   12  dxz    Ryd( 3d)     0.00051       2.24594
   116    C   12  dyz    Ryd( 3d)     0.00086       2.26035
   117    C   12  dx2y2  Ryd( 3d)     0.00091       2.11290
   118    C   12  dz2    Ryd( 3d)     0.00101       2.06566
 
   119    C   13  S      Cor( 1S)     1.99864     -10.10601
   120    C   13  S      Val( 2S)     0.82696      -0.11536
   121    C   13  S      Ryd( 3S)     0.00491       0.95333
   122    C   13  px     Val( 2p)     1.03908      -0.11163
   123    C   13  px     Ryd( 3p)     0.00886       1.00044
   124    C   13  py     Val( 2p)     1.05667      -0.08685
   125    C   13  py     Ryd( 3p)     0.00777       0.92905
   126    C   13  pz     Val( 2p)     1.10579      -0.09793
   127    C   13  pz     Ryd( 3p)     0.00453       1.01529
   128    C   13  dxy    Ryd( 3d)     0.00077       2.22284
   129    C   13  dxz    Ryd( 3d)     0.00080       2.30053
   130    C   13  dyz    Ryd( 3d)     0.00103       2.27637
   131    C   13  dx2y2  Ryd( 3d)     0.00099       2.18547
   132    C   13  dz2    Ryd( 3d)     0.00086       2.19343
 
   133    C   14  S      Cor( 1S)     1.99852     -10.10368
   134    C   14  S      Val( 2S)     0.93066      -0.18964
   135    C   14  S      Ryd( 3S)     0.00452       0.94623
   136    C   14  px     Val( 2p)     1.13186      -0.17316
   137    C   14  px     Ryd( 3p)     0.00709       0.98884
   138    C   14  py     Val( 2p)     1.18185      -0.14065
   139    C   14  py     Ryd( 3p)     0.00772       0.96348
   140    C   14  pz     Val( 2p)     1.12332      -0.11792
   141    C   14  pz     Ryd( 3p)     0.00602       0.82738
   142    C   14  dxy    Ryd( 3d)     0.00125       2.12341
   143    C   14  dxz    Ryd( 3d)     0.00066       2.27102
   144    C   14  dyz    Ryd( 3d)     0.00070       2.24913
   145    C   14  dx2y2  Ryd( 3d)     0.00097       2.26581
   146    C   14  dz2    Ryd( 3d)     0.00110       2.05823
 
   147    C   15  S      Cor( 1S)     1.99864     -10.10186
   148    C   15  S      Val( 2S)     0.93329      -0.15575
   149    C   15  S      Ryd( 3S)     0.00327       0.83657
   150    C   15  px     Val( 2p)     1.03169      -0.08781
   151    C   15  px     Ryd( 3p)     0.00515       0.69236
   152    C   15  py     Val( 2p)     1.15681      -0.07587
   153    C   15  py     Ryd( 3p)     0.00624       0.90829
   154    C   15  pz     Val( 2p)     1.07720      -0.09840
   155    C   15  pz     Ryd( 3p)     0.00697       0.77531
   156    C   15  dxy    Ryd( 3d)     0.00065       2.23203
   157    C   15  dxz    Ryd( 3d)     0.00066       2.28905
   158    C   15  dyz    Ryd( 3d)     0.00110       2.13003
   159    C   15  dx2y2  Ryd( 3d)     0.00092       2.12680
   160    C   15  dz2    Ryd( 3d)     0.00085       2.13774
 
   161    C   16  S      Cor( 1S)     1.99866     -10.10534
   162    C   16  S      Val( 2S)     0.94281      -0.16076
   163    C   16  S      Ryd( 3S)     0.00263       0.83162
   164    C   16  px     Val( 2p)     1.15401      -0.08903
   165    C   16  px     Ryd( 3p)     0.00425       0.85736
   166    C   16  py     Val( 2p)     1.03980      -0.06845
   167    C   16  py     Ryd( 3p)     0.00618       0.64214
   168    C   16  pz     Val( 2p)     1.06654      -0.09484
   169    C   16  pz     Ryd( 3p)     0.00627       0.75176
   170    C   16  dxy    Ryd( 3d)     0.00089       2.17235
   171    C   16  dxz    Ryd( 3d)     0.00094       2.16701
   172    C   16  dyz    Ryd( 3d)     0.00082       2.21928
   173    C   16  dx2y2  Ryd( 3d)     0.00074       2.15637
   174    C   16  dz2    Ryd( 3d)     0.00091       2.11973
 
   175    H   17  S      Val( 1S)     0.74378       0.10534
   176    H   17  S      Ryd( 2S)     0.00118       0.39959
 
   177    H   18  S      Val( 1S)     0.73795       0.11512
   178    H   18  S      Ryd( 2S)     0.00149       0.41051
 
   179    H   19  S      Val( 1S)     0.74967       0.10452
   180    H   19  S      Ryd( 2S)     0.00116       0.35058
 
   181    C   20  S      Cor( 1S)     1.99900     -10.11335
   182    C   20  S      Val( 2S)     0.98932      -0.22332
   183    C   20  S      Ryd( 3S)     0.00509       1.03099
   184    C   20  px     Val( 2p)     1.18593      -0.14761
   185    C   20  px     Ryd( 3p)     0.00502       0.78954
   186    C   20  py     Val( 2p)     1.18091      -0.10053
   187    C   20  py     Ryd( 3p)     0.00483       0.84022
   188    C   20  pz     Val( 2p)     1.14764      -0.09481
   189    C   20  pz     Ryd( 3p)     0.00371       0.78077
   190    C   20  dxy    Ryd( 3d)     0.00070       2.08923
   191    C   20  dxz    Ryd( 3d)     0.00076       2.18055
   192    C   20  dyz    Ryd( 3d)     0.00105       2.26130
   193    C   20  dx2y2  Ryd( 3d)     0.00127       2.12904
   194    C   20  dz2    Ryd( 3d)     0.00064       2.01947
 
   195    H   21  S      Val( 1S)     0.71986       0.11235
   196    H   21  S      Ryd( 2S)     0.00439       0.59478
 
   197    P   22  S      Cor( 1S)     1.99999     -76.18993
   198    P   22  S      Cor( 2S)     1.99842      -7.40334
   199    P   22  S      Val( 3S)     1.25551      -0.38564
   200    P   22  S      Ryd( 4S)     0.00604       0.66827
   201    P   22  px     Cor( 2p)     1.99984      -4.74238
   202    P   22  px     Val( 3p)     1.26661      -0.09757
   203    P   22  px     Ryd( 4p)     0.00603       0.78365
   204    P   22  py     Cor( 2p)     1.99974      -4.74438
   205    P   22  py     Val( 3p)     0.83366      -0.04055
   206    P   22  py     Ryd( 4p)     0.00581       0.82910
   207    P   22  pz     Cor( 2p)     1.99971      -4.74541
   208    P   22  pz     Val( 3p)     0.71479      -0.03727
   209    P   22  pz     Ryd( 4p)     0.00577       0.77907
   210    P   22  dxy    Ryd( 3d)     0.00568       1.11894
   211    P   22  dxz    Ryd( 3d)     0.00511       0.98396
   212    P   22  dyz    Ryd( 3d)     0.00849       1.18078
   213    P   22  dx2y2  Ryd( 3d)     0.00394       0.97196
   214    P   22  dz2    Ryd( 3d)     0.00301       1.08113
 
   215    C   23  S      Cor( 1S)     1.99926     -10.09449
   216    C   23  S      Val( 2S)     1.06328      -0.22141
   217    C   23  S      Ryd( 3S)     0.00091       0.96317
   218    C   23  px     Val( 2p)     1.20427      -0.07901
   219    C   23  px     Ryd( 3p)     0.00364       0.74894
   220    C   23  py     Val( 2p)     1.14720      -0.07168
   221    C   23  py     Ryd( 3p)     0.00228       0.61031
   222    C   23  pz     Val( 2p)     1.20246      -0.07614
   223    C   23  pz     Ryd( 3p)     0.00336       0.75002
   224    C   23  dxy    Ryd( 3d)     0.00033       2.00394
   225    C   23  dxz    Ryd( 3d)     0.00037       2.01752
   226    C   23  dyz    Ryd( 3d)     0.00073       2.13668
   227    C   23  dx2y2  Ryd( 3d)     0.00089       2.15644
   228    C   23  dz2    Ryd( 3d)     0.00062       2.06002
 
   229    H   24  S      Val( 1S)     0.77891       0.08966
   230    H   24  S      Ryd( 2S)     0.00130       0.49053
 
   231    H   25  S      Val( 1S)     0.77808       0.09147
   232    H   25  S      Ryd( 2S)     0.00294       0.54388
 
   233    H   26  S      Val( 1S)     0.77979       0.08422
   234    H   26  S      Ryd( 2S)     0.00144       0.50665
 
   235    P   27  S      Cor( 1S)     1.99999     -76.29857
   236    P   27  S      Cor( 2S)     1.99890      -7.24346
   237    P   27  S      Val( 3S)     1.34789      -0.41168
   238    P   27  S      Ryd( 4S)     0.00479       0.72315
   239    P   27  px     Cor( 2p)     1.99979      -4.71185
   240    P   27  px     Val( 3p)     0.79500      -0.04356
   241    P   27  px     Ryd( 4p)     0.00398       0.86702
   242    P   27  py     Cor( 2p)     1.99985      -4.70933
   243    P   27  py     Val( 3p)     1.35020      -0.09995
   244    P   27  py     Ryd( 4p)     0.00523       0.89189
   245    P   27  pz     Cor( 2p)     1.99976      -4.71128
   246    P   27  pz     Val( 3p)     0.70063      -0.02276
   247    P   27  pz     Ryd( 4p)     0.00328       0.88345
   248    P   27  dxy    Ryd( 3d)     0.00235       0.96655
   249    P   27  dxz    Ryd( 3d)     0.00355       0.98924
   250    P   27  dyz    Ryd( 3d)     0.00663       1.06506
   251    P   27  dx2y2  Ryd( 3d)     0.00489       1.03087
   252    P   27  dz2    Ryd( 3d)     0.00389       0.99060
 
   253    C   28  S      Cor( 1S)     1.99894     -10.11930
   254    C   28  S      Val( 2S)     0.95180      -0.22651
   255    C   28  S      Ryd( 3S)     0.00350       0.96449
   256    C   28  px     Val( 2p)     1.11117      -0.11278
   257    C   28  px     Ryd( 3p)     0.00388       0.80949
   258    C   28  py     Val( 2p)     1.09691      -0.10873
   259    C   28  py     Ryd( 3p)     0.00401       0.79462
   260    C   28  pz     Val( 2p)     1.15886      -0.13664
   261    C   28  pz     Ryd( 3p)     0.00382       0.80227
   262    C   28  dxy    Ryd( 3d)     0.00086       2.01152
   263    C   28  dxz    Ryd( 3d)     0.00100       2.02255
   264    C   28  dyz    Ryd( 3d)     0.00122       2.11796
   265    C   28  dx2y2  Ryd( 3d)     0.00114       2.31901
   266    C   28  dz2    Ryd( 3d)     0.00092       2.15182
 
   267    C   29  S      Cor( 1S)     1.99893     -10.11522
   268    C   29  S      Val( 2S)     0.94983      -0.22220
   269    C   29  S      Ryd( 3S)     0.00411       0.98726
   270    C   29  px     Val( 2p)     1.08498      -0.09778
   271    C   29  px     Ryd( 3p)     0.00311       0.81480
   272    C   29  py     Val( 2p)     1.11067      -0.11278
   273    C   29  py     Ryd( 3p)     0.00394       0.80359
   274    C   29  pz     Val( 2p)     1.16933      -0.13764
   275    C   29  pz     Ryd( 3p)     0.00439       0.80986
   276    C   29  dxy    Ryd( 3d)     0.00093       2.22882
   277    C   29  dxz    Ryd( 3d)     0.00064       1.97826
   278    C   29  dyz    Ryd( 3d)     0.00150       2.17356
   279    C   29  dx2y2  Ryd( 3d)     0.00100       2.12542
   280    C   29  dz2    Ryd( 3d)     0.00113       2.15574
 
   281    C   30  S      Cor( 1S)     1.99918     -10.08309
   282    C   30  S      Val( 2S)     1.06051      -0.21071
   283    C   30  S      Ryd( 3S)     0.00158       0.94900
   284    C   30  px     Val( 2p)     1.18423      -0.06321
   285    C   30  px     Ryd( 3p)     0.00317       0.68900
   286    C   30  py     Val( 2p)     1.14027      -0.06494
   287    C   30  py     Ryd( 3p)     0.00296       0.63176
   288    C   30  pz     Val( 2p)     1.22888      -0.07160
   289    C   30  pz     Ryd( 3p)     0.00440       0.74670
   290    C   30  dxy    Ryd( 3d)     0.00048       2.13066
   291    C   30  dxz    Ryd( 3d)     0.00011       1.88927
   292    C   30  dyz    Ryd( 3d)     0.00103       2.16646
   293    C   30  dx2y2  Ryd( 3d)     0.00072       2.05979
   294    C   30  dz2    Ryd( 3d)     0.00058       2.10877
 
   295    H   31  S      Val( 1S)     0.78056       0.10302
   296    H   31  S      Ryd( 2S)     0.00213       0.60533
 
   297    H   32  S      Val( 1S)     0.78664       0.08749
   298    H   32  S      Ryd( 2S)     0.00269       0.39936
 
   299    H   33  S      Val( 1S)     0.78126       0.09491
   300    H   33  S      Ryd( 2S)     0.00143       0.49568
 
   301    C   34  S      Cor( 1S)     1.99922     -10.08857
   302    C   34  S      Val( 2S)     1.06494      -0.21879
   303    C   34  S      Ryd( 3S)     0.00138       0.93025
   304    C   34  px     Val( 2p)     1.10605      -0.06807
   305    C   34  px     Ryd( 3p)     0.00239       0.58530
   306    C   34  py     Val( 2p)     1.21735      -0.07169
   307    C   34  py     Ryd( 3p)     0.00395       0.71613
   308    C   34  pz     Val( 2p)     1.22775      -0.07697
   309    C   34  pz     Ryd( 3p)     0.00427       0.74288
   310    C   34  dxy    Ryd( 3d)     0.00085       2.13730
   311    C   34  dxz    Ryd( 3d)     0.00026       1.90981
   312    C   34  dyz    Ryd( 3d)     0.00080       2.12112
   313    C   34  dx2y2  Ryd( 3d)     0.00039       2.04255
   314    C   34  dz2    Ryd( 3d)     0.00063       2.11444
 
   315    H   35  S      Val( 1S)     0.77914       0.08838
   316    H   35  S      Ryd( 2S)     0.00232       0.39771
 
   317    H   36  S      Val( 1S)     0.77166       0.09682
   318    H   36  S      Ryd( 2S)     0.00204       0.42566
 
   319    H   37  S      Val( 1S)     0.78518       0.09003
   320    H   37  S      Ryd( 2S)     0.00150       0.50351
 
   321    C   38  S      Cor( 1S)     1.99920     -10.08152
   322    C   38  S      Val( 2S)     1.06514      -0.20956
   323    C   38  S      Ryd( 3S)     0.00151       0.96535
   324    C   38  px     Val( 2p)     1.23539      -0.05993
   325    C   38  px     Ryd( 3p)     0.00388       0.74761
   326    C   38  py     Val( 2p)     1.18697      -0.06632
   327    C   38  py     Ryd( 3p)     0.00414       0.69736
   328    C   38  pz     Val( 2p)     1.12798      -0.06427
   329    C   38  pz     Ryd( 3p)     0.00323       0.66345
   330    C   38  dxy    Ryd( 3d)     0.00074       2.10711
   331    C   38  dxz    Ryd( 3d)     0.00016       1.90611
   332    C   38  dyz    Ryd( 3d)     0.00074       2.18886
   333    C   38  dx2y2  Ryd( 3d)     0.00051       2.04529
   334    C   38  dz2    Ryd( 3d)     0.00076       2.12016
 
   335    H   39  S      Val( 1S)     0.78455       0.09086
   336    H   39  S      Ryd( 2S)     0.00210       0.40214
 
   337    H   40  S      Val( 1S)     0.77416       0.11707
   338    H   40  S      Ryd( 2S)     0.00434       0.63769
 
   339    H   41  S      Val( 1S)     0.76742       0.10475
   340    H   41  S      Ryd( 2S)     0.00168       0.45577
 
   341    C   42  S      Cor( 1S)     1.99922     -10.09128
   342    C   42  S      Val( 2S)     1.06654      -0.22145
   343    C   42  S      Ryd( 3S)     0.00155       0.92504
   344    C   42  px     Val( 2p)     1.21761      -0.07222
   345    C   42  px     Ryd( 3p)     0.00369       0.71734
   346    C   42  py     Val( 2p)     1.20039      -0.07566
   347    C   42  py     Ryd( 3p)     0.00354       0.65469
   348    C   42  pz     Val( 2p)     1.13463      -0.07258
   349    C   42  pz     Ryd( 3p)     0.00293       0.64779
   350    C   42  dxy    Ryd( 3d)     0.00018       1.92705
   351    C   42  dxz    Ryd( 3d)     0.00064       2.08307
   352    C   42  dyz    Ryd( 3d)     0.00043       2.05586
   353    C   42  dx2y2  Ryd( 3d)     0.00100       2.16684
   354    C   42  dz2    Ryd( 3d)     0.00066       2.05466
 
   355    H   43  S      Val( 1S)     0.78581       0.09116
   356    H   43  S      Ryd( 2S)     0.00156       0.47505
 
   357    H   44  S      Val( 1S)     0.77883       0.08789
   358    H   44  S      Ryd( 2S)     0.00217       0.39133
 
   359    H   45  S      Val( 1S)     0.76489       0.09896
   360    H   45  S      Ryd( 2S)     0.00222       0.43176
 
   361    C   46  S      Cor( 1S)     1.99921     -10.08480
   362    C   46  S      Val( 2S)     1.06383      -0.21385
   363    C   46  S      Ryd( 3S)     0.00135       0.92561
   364    C   46  px     Val( 2p)     1.07751      -0.06204
   365    C   46  px     Ryd( 3p)     0.00199       0.57485
   366    C   46  py     Val( 2p)     1.23567      -0.06806
   367    C   46  py     Ryd( 3p)     0.00438       0.72000
   368    C   46  pz     Val( 2p)     1.22901      -0.07042
   369    C   46  pz     Ryd( 3p)     0.00455       0.70504
   370    C   46  dxy    Ryd( 3d)     0.00056       1.98322
[...]
   303. RY*(   6) C  29                  0.00064     1.96538   
   304. RY*(   7) C  29                  0.00059     2.14274   
   305. RY*(   8) C  29                  0.00036     2.17137   
   306. RY*(   9) C  29                  0.00035     1.99415   
   307. RY*(   1) C  30                  0.00451     0.86242   
   308. RY*(   2) C  30                  0.00413     0.85016   
   309. RY*(   3) C  30                  0.00226     0.82409   
   310. RY*(   4) C  30                  0.00026     0.76260   
   311. RY*(   5) C  30                  0.00007     1.95939   
   312. RY*(   6) C  30                  0.00002     1.94265   
   313. RY*(   7) C  30                  0.00002     2.13425   
   314. RY*(   8) C  30                  0.00001     1.99692   
   315. RY*(   9) C  30                  0.00001     2.02691   
   316. RY*(   1) H  31                  0.00213     0.60521   
   317. RY*(   1) H  32                  0.00270     0.39784   
   318. RY*(   1) H  33                  0.00143     0.49547   
   319. RY*(   1) C  34                  0.00463     0.86250   
   320. RY*(   2) C  34                  0.00426     0.85777   
   321. RY*(   3) C  34                  0.00182     0.83801   
   322. RY*(   4) C  34                  0.00023     0.71331   
   323. RY*(   5) C  34                  0.00004     2.07141   
   324. RY*(   6) C  34                  0.00002     1.88210   
   325. RY*(   7) C  34                  0.00002     2.10664   
   326. RY*(   8) C  34                  0.00001     1.92763   
   327. RY*(   9) C  34                  0.00001     2.02839   
   328. RY*(   1) H  35                  0.00233     0.39647   
   329. RY*(   1) H  36                  0.00204     0.42476   
   330. RY*(   1) H  37                  0.00150     0.50306   
   331. RY*(   1) C  38                  0.00529     0.84421   
   332. RY*(   2) C  38                  0.00419     0.86297   
   333. RY*(   3) C  38                  0.00195     0.88877   
   334. RY*(   4) C  38                  0.00031     0.72097   
   335. RY*(   5) C  38                  0.00008     2.09108   
   336. RY*(   6) C  38                  0.00001     1.88121   
   337. RY*(   7) C  38                  0.00002     2.04136   
   338. RY*(   8) C  38                  0.00002     1.99397   
   339. RY*(   9) C  38                  0.00002     2.10508   
   340. RY*(   1) H  39                  0.00211     0.40106   
   341. RY*(   1) H  40                  0.00434     0.63763   
   342. RY*(   1) H  41                  0.00168     0.45511   
   343. RY*(   1) C  42                  0.00434     0.83820   
   344. RY*(   2) C  42                  0.00395     0.84828   
   345. RY*(   3) C  42                  0.00200     0.84429   
   346. RY*(   4) C  42                  0.00025     0.72948   
   347. RY*(   5) C  42                  0.00005     1.99722   
   348. RY*(   6) C  42                  0.00001     1.94707   
   349. RY*(   7) C  42                  0.00001     1.89801   
   350. RY*(   8) C  42                  0.00001     2.08400   
   351. RY*(   9) C  42                  0.00002     2.03516   
   352. RY*(   1) H  43                  0.00156     0.47478   
   353. RY*(   1) H  44                  0.00218     0.39017   
   354. RY*(   1) H  45                  0.00223     0.43073   
   355. RY*(   1) C  46                  0.00498     0.78642   
   356. RY*(   2) C  46                  0.00432     0.85153   
   357. RY*(   3) C  46                  0.00174     0.84535   
   358. RY*(   4) C  46                  0.00020     0.73560   
   359. RY*(   5) C  46                  0.00006     2.07824   
   360. RY*(   6) C  46                  0.00001     1.85839   
   361. RY*(   7) C  46                  0.00001     1.89895   
   362. RY*(   8) C  46                  0.00002     2.12962   
   363. RY*(   9) C  46                  0.00002     2.02805   
   364. RY*(   1) H  47                  0.00135     0.46792   
   365. RY*(   1) H  48                  0.00184     0.39337   
   366. RY*(   1) H  49                  0.00210     0.40133   
   367. RY*(   1) C  50                  0.00442     0.86672   
   368. RY*(   2) C  50                  0.00397     0.83094   
   369. RY*(   3) C  50                  0.00226     0.80057   
   370. RY*(   4) C  50                  0.00024     0.76840   
   371. RY*(   5) C  50                  0.00006     1.96225   
   372. RY*(   6) C  50                  0.00002     1.94037   
   373. RY*(   7) C  50                  0.00002     1.95796   
   374. RY*(   8) C  50                  0.00002     2.12837   
   375. RY*(   9) C  50                  0.00001     2.00589   
   376. RY*(   1) H  51                  0.00265     0.39548   
   377. RY*(   1) H  52                  0.00139     0.49757   
   378. RY*(   1) H  53                  0.00139     0.48712   
   379. RY*(   1) C  54                  0.00746     1.21814   
   380. RY*(   2) C  54                  0.00717     0.80165   
   381. RY*(   3) C  54                  0.00445     0.79618   
   382. RY*(   4) C  54                  0.00250     0.87758   
   383. RY*(   5) C  54                  0.00168     1.86813   
   384. RY*(   6) C  54                  0.00070     2.11167   
   385. RY*(   7) C  54                  0.00047     1.85125   
   386. RY*(   8) C  54                  0.00030     2.03391   
   387. RY*(   9) C  54                  0.00003     2.16621   
   388. RY*(   1) C  55                  0.00494     1.09534   
   389. RY*(   2) C  55                  0.00306     0.67602   
   390. RY*(   3) C  55                  0.00145     0.70966   
   391. RY*(   4) C  55                  0.00082     0.83821   
   392. RY*(   5) C  55                  0.00069     1.70113   
   393. RY*(   6) C  55                  0.00016     2.06398   
   394. RY*(   7) C  55                  0.00009     2.38525   
   395. RY*(   8) C  55                  0.00004     1.89201   
   396. RY*(   9) C  55                  0.00002     2.20245   
   397. RY*(   1) O  56                  0.00315     1.30894   
   398. RY*(   2) O  56                  0.00111     1.31201   
   399. RY*(   3) O  56                  0.00063     2.03177   
   400. RY*(   4) O  56                  0.00051     2.37246   
   401. RY*(   5) O  56                  0.00026     1.64059   
   402. RY*(   6) O  56                  0.00007     2.98224   
   403. RY*(   7) O  56                  0.00007     2.65949   
   404. RY*(   8) O  56                  0.00003     2.97284   
   405. RY*(   9) O  56                  0.00001     2.57247   
   406. RY*(   1) C  57                  0.00402     1.12393   
   407. RY*(   2) C  57                  0.00165     0.68101   
   408. RY*(   3) C  57                  0.00105     1.36699   
   409. RY*(   4) C  57                  0.00057     0.69047   
   410. RY*(   5) C  57                  0.00037     1.15546   
   411. RY*(   6) C  57                  0.00012     2.04303   
   412. RY*(   7) C  57                  0.00005     2.34490   
   413. RY*(   8) C  57                  0.00002     1.96312   
   414. RY*(   9) C  57                  0.00000     1.94118   
   415. RY*(   1) H  58                  0.00145     0.38061   
   416. RY*(   1) C  59                  0.00538     0.95042   
   417. RY*(   2) C  59                  0.00395     0.87920   
   418. RY*(   3) C  59                  0.00274     0.84133   
   419. RY*(   4) C  59                  0.00172     1.76520   
   420. RY*(   5) C  59                  0.00103     1.07151   
   421. RY*(   6) C  59                  0.00047     2.10033   
   422. RY*(   7) C  59                  0.00010     1.63250   
   423. RY*(   8) C  59                  0.00002     2.04182   
   424. RY*(   9) C  59                  0.00000     1.80683   
   425. RY*(   1) H  60                  0.00091     0.30836   
   426. RY*(   1) H  61                  0.00073     0.29024   
   427. RY*(   1) C  62                  0.00733     1.15910   
   428. RY*(   2) C  62                  0.00598     0.79405   
   429. RY*(   3) C  62                  0.00363     0.75460   
   430. RY*(   4) C  62                  0.00266     1.06582   
   431. RY*(   5) C  62                  0.00177     1.87404   
   432. RY*(   6) C  62                  0.00064     2.24095   
   433. RY*(   7) C  62                  0.00040     1.97303   
   434. RY*(   8) C  62                  0.00021     1.61222   
   435. RY*(   9) C  62                  0.00002     2.15620   
   436. RY*(   1) C  63                  0.00486     1.10651   
   437. RY*(   2) C  63                  0.00223     0.69815   
   438. RY*(   3) C  63                  0.00128     0.70088   
   439. RY*(   4) C  63                  0.00074     1.28958   
   440. RY*(   5) C  63                  0.00063     1.17406   
   441. RY*(   6) C  63                  0.00015     2.09034   
   442. RY*(   7) C  63                  0.00007     2.39781   
   443. RY*(   8) C  63                  0.00005     1.89554   
   444. RY*(   9) C  63                  0.00001     2.17064   
   445. RY*(   1) O  64                  0.00300     1.27204   
   446. RY*(   2) O  64                  0.00114     1.24617   
   447. RY*(   3) O  64                  0.00057     1.85538   
   448. RY*(   4) O  64                  0.00056     2.59009   
   449. RY*(   5) O  64                  0.00017     1.62234   
   450. RY*(   6) O  64                  0.00010     2.67713   
   451. RY*(   7) O  64                  0.00006     2.96610   
   452. RY*(   8) O  64                  0.00002     2.96942   
   453. RY*(   9) O  64                  0.00002     2.57382   
   454. RY*(   1) C  65                  0.00420     1.10612   
   455. RY*(   2) C  65                  0.00162     0.68441   
   456. RY*(   3) C  65                  0.00122     1.31979   
   457. RY*(   4) C  65                  0.00051     0.60636   
   458. RY*(   5) C  65                  0.00034     1.27726   
   459. RY*(   6) C  65                  0.00011     2.09550   
   460. RY*(   7) C  65                  0.00005     2.32868   
   461. RY*(   8) C  65                  0.00001     2.15492   
   462. RY*(   9) C  65                  0.00000     1.72777   
   463. RY*(   1) H  66                  0.00098     0.40050   
   464. RY*(   1) C  67                  0.00565     1.02056   
   465. RY*(   2) C  67                  0.00384     0.76717   
   466. RY*(   3) C  67                  0.00306     0.71579   
   467. RY*(   4) C  67                  0.00172     1.82932   
   468. RY*(   5) C  67                  0.00094     1.11020   
   469. RY*(   6) C  67                  0.00045     2.11477   
   470. RY*(   7) C  67                  0.00010     1.59407   
   471. RY*(   8) C  67                  0.00001     2.06305   
   472. RY*(   9) C  67                  0.00000     1.74482   
   473. RY*(   1) H  68                  0.00085     0.31154   
   474. RY*(   1) H  69                  0.00071     0.29038   
   487. BD*(   1) C  12 - C  13          0.04417     0.51871   
   488. BD*(   1) C  12 - C  16          0.02712     0.52698   
   489. BD*(   1) C  12 - H  17          0.01665     0.48642   
   490. BD*(   1) C  13 - C  14          0.05206     0.50090   
   491. BD*(   2) C  13 - C  14          0.54559     0.02607  496(v),138(v),490(g),135(r)
                                                    133(r),534(r),501(v),132(r)
                                                    502(v),499(v),211(g),477(r)
                                                    221(g),544(r),215(g),494(g)
                                                    480(r),222(g),136(r),198(r)
                                                    200(r),199(r)
   492. BD*(   1) C  13 - C  20          0.03499     0.45626   
   493. BD*(   1) C  14 - C  15          0.02406     0.51983   
   494. BD*(   1) C  14 - P  22          0.04831     0.28411   
   495. BD*(   1) C  15 - C  16          0.03255     0.51693   
   496. BD*(   2) C  15 - C  16          0.45749     0.04522  491(v),477(r),138(v),480(r)
                                                    495(g),133(r),135(r),136(r)
                                                    229(g),239(g),238(g),237(g)
                                                    230(g),494(v),544(r),199(r)
                                                    128(r),197(r),198(r),137(r)
   497. BD*(   1) C  15 - H  18          0.01718     0.49634   
   498. BD*(   1) C  16 - H  19          0.01592     0.48967   
   499. BD*(   1) C  20 - H  21          0.02214     0.47233   
   500. BD*(   1) C  20 - C  23          0.02234     0.41378   
   501. BD*(   1) C  20 - P  27          0.03955     0.21193   
   502. BD*(   1) P  22 - C  54          0.03867     0.28008   
   503. BD*(   1) P  22 - C  62          0.03391     0.27834   
   504. BD*(   1) C  23 - H  24          0.00782     0.47451   
   505. BD*(   1) C  23 - H  25          0.01335     0.47180   
   506. BD*(   1) C  23 - H  26          0.00947     0.46295   
   507. BD*(   1) P  27 - C  28          0.04743     0.21933   
   508. BD*(   1) P  27 - C  29          0.04748     0.21759   
   509. BD*(   1) C  28 - C  42          0.02167     0.40122   
   510. BD*(   1) C  28 - C  46          0.02198     0.40749   
   511. BD*(   1) C  28 - C  50          0.03110     0.41139   
   512. BD*(   1) C  29 - C  30          0.02945     0.41783   
   513. BD*(   1) C  29 - C  34          0.02195     0.41161   
   514. BD*(   1) C  29 - C  38          0.02259     0.40898   
   515. BD*(   1) C  30 - H  31          0.00849     0.49083   
   516. BD*(   1) C  30 - H  32          0.01401     0.46112   
   517. BD*(   1) C  30 - H  33          0.00755     0.47733   
   518. BD*(   1) C  34 - H  35          0.01163     0.46237   
   519. BD*(   1) C  34 - H  36          0.00834     0.47194   
   520. BD*(   1) C  34 - H  37          0.00854     0.47353   
   521. BD*(   1) C  38 - H  39          0.01153     0.46632   
   522. BD*(   1) C  38 - H  40          0.00732     0.50672   
   523. BD*(   1) C  38 - H  41          0.00738     0.47492   
   524. BD*(   1) C  42 - H  43          0.00828     0.47710   
   525. BD*(   1) C  42 - H  44          0.01116     0.46286   
   526. BD*(   1) C  42 - H  45          0.00832     0.46992   
   527. BD*(   1) C  46 - H  47          0.00800     0.48514   
   528. BD*(   1) C  46 - H  48          0.00755     0.48864   
   529. BD*(   1) C  46 - H  49          0.01052     0.46080   
   530. BD*(   1) C  50 - H  51          0.01368     0.45832   
   531. BD*(   1) C  50 - H  52          0.00848     0.48675   
   532. BD*(   1) C  50 - H  53          0.00796     0.46974   
   533. BD*(   1) C  54 - C  55          0.02763     0.62249   
   534. BD*(   2) C  54 - C  55          0.30221     0.03573  540(v),491(r),494(v),390(g)
                                                    544(r),477(r),383(g),392(g)
                                                    481(r)
   535. BD*(   1) C  54 - O  56          0.03864     0.36738   
   536. BD*(   1) C  55 - C  57          0.01531     0.55084   
   537. BD*(   1) C  55 - H  58          0.01455     0.49242   
   538. BD*(   1) O  56 - C  59          0.02054     0.39587   
   539. BD*(   1) C  57 - C  59          0.01540     0.62192   
   540. BD*(   2) C  57 - C  59          0.27529     0.03321  534(v),410(g),418(g),419(g)
                                                    478(r)
   541. BD*(   1) C  57 - H  60          0.01362     0.48614   
   542. BD*(   1) C  59 - H  61          0.01615     0.47786   
   543. BD*(   1) C  62 - C  63          0.02061     0.61869   
   544. BD*(   2) C  62 - C  63          0.33401     0.03374  550(v),438(g),430(g),494(v)
                                                    534(r),439(g),431(g)
   545. BD*(   1) C  62 - O  64          0.03012     0.37509   
   546. BD*(   1) C  63 - C  65          0.01432     0.55416   
   547. BD*(   1) C  63 - H  66          0.01415     0.49344   
   548. BD*(   1) O  64 - C  67          0.02090     0.39987   
   549. BD*(   1) C  65 - C  67          0.01510     0.62954   
   550. BD*(   2) C  65 - C  67          0.27396     0.04053  544(v),458(g),466(g),467(g)
   551. BD*(   1) C  65 - H  68          0.01311     0.48982   
   552. BD*(   1) C  67 - H  69          0.01605     0.48282   
       -------------------------------
              Total Lewis  211.21252  ( 98.2162%)
        Valence non-Lewis    3.40738  (  1.5845%)
        Rydberg non-Lewis    0.42872  (  0.1994%)
       -------------------------------
            Total unit  3  215.04862  (100.0000%)
           Charge unit  3   -0.04862
 Leave Link  607 at Fri Sep 29 19:33:22 2023, MaxMem=  4026531840 cpu:              23.5 elap:               2.8
 (Enter /sw/arch/RHEL8/EB_production/2022/software/Gaussian/g16.c02/l9999.exe)
 Unable to Open any file for archive entry.
 1\1\GINC-TCN1231\SP\RPBE1PBE\def2SVPP\C28H36Fe1O2P2\ADARSH\29-Sep-2023
 \0\\#p pop=nbo pbe1pbe/def2svpp empiricaldispersion=gd3bj integral=gri
 d=ultrafinegrid scf=(xqc,maxconventionalcycles=90) nosymm\\Cisa\\0,1\C
 ,0,-3.53713,-0.78243,-1.25602\C,0,-4.05978,-1.48569,-0.13138\C,0,-5.00
 411,-0.64024,0.51627\C,0,-5.06399,0.58711,-0.20359\C,0,-4.16088,0.4961
 3,-1.30119\H,0,-2.79051,-1.15769,-1.95546\H,0,-3.7692,-2.48533,0.1893\
 H,0,-5.5582,-0.8764,1.42505\H,0,-5.67534,1.45224,0.05393\H,0,-3.97827,
 1.27319,-2.04352\Fe,0,-3.16166,0.24705,0.47784\C,0,-2.36812,1.99798,1.
 18158\C,0,-1.35939,1.2346,0.51841\C,0,-1.2865,-0.03421,1.19118\C,0,-2.
 24134,-0.03393,2.26251\C,0,-2.89757,1.22551,2.25351\H,0,-2.71142,2.991
 38,0.89684\H,0,-2.44074,-0.86279,2.93932\H,0,-3.70366,1.52941,2.92115\
 C,0,-0.52054,1.66276,-0.65482\H,0,-0.50551,0.82441,-1.37305\P,0,-0.005
 83,-1.22911,0.80732\C,0,-1.17075,2.85475,-1.35583\H,0,-0.73659,3.04909
 ,-2.34479\H,0,-2.23636,2.61841,-1.50933\H,0,-1.1167,3.78216,-0.76771\P
 ,0,1.32948,1.74173,-0.18699\C,0,2.16244,2.57665,-1.68081\C,0,1.49189,2
 .79853,1.3853\C,0,0.57088,4.01926,1.39874\H,0,-0.49009,3.72972,1.39935
 \H,0,0.75321,4.58965,2.32816\H,0,0.755,4.70097,0.55441\C,0,2.94025,3.2
 6296,1.55935\H,0,3.03675,3.73521,2.55358\H,0,3.65311,2.42283,1.5252\H,
 0,3.23748,4.01661,0.81428\C,0,1.15103,1.89562,2.58019\H,0,1.31507,2.46
 473,3.51372\H,0,0.1022,1.56356,2.57195\H,0,1.80284,1.00133,2.60378\C,0
 ,1.71517,1.75703,-2.90146\H,0,0.65642,1.90637,-3.16153\H,0,2.31334,2.0
 59,-3.78\H,0,1.87395,0.67504,-2.73749\C,0,3.6902,2.46594,-1.59942\H,0,
 4.11631,2.97533,-0.72468\H,0,4.03847,1.4275,-1.60131\H,0,4.11508,2.952
 07,-2.49613\C,0,1.84094,4.06482,-1.85946\H,0,2.25716,4.39852,-2.8277\H
 ,0,0.77034,4.30047,-1.86511\H,0,2.32063,4.67578,-1.07797\C,0,-0.53919,
 -2.24927,-0.57932\C,0,-1.18542,-3.44892,-0.71562\O,0,-0.22551,-1.75806
 ,-1.80879\C,0,-1.27785,-3.69649,-2.11807\H,0,-1.5414,-4.08286,0.09362\
 C,0,-0.6798,-2.63198,-2.72753\H,0,-1.72908,-4.55792,-2.6086\H,0,-0.502
 4,-2.36668,-3.76808\C,0,-0.04236,-2.3577,2.21678\C,0,-0.06156,-2.10581
 ,3.56497\O,0,0.18676,-3.67753,2.00554\C,0,0.14876,-3.36215,4.20996\H,0
 ,-0.1983,-1.13472,4.03904\C,0,0.29203,-4.27714,3.20894\H,0,0.18281,-3.
 55742,5.28083\H,0,0.45861,-5.35248,3.19139\\Version=ES64L-G16RevC.02\H
 F=-3182.2992252\RMSD=3.250e-09\Dipole=-0.7209156,0.1422151,0.0213997\Q
 uadrupole=-7.5666233,3.4470777,4.1195456,0.2659039,-3.7116959,-1.74157
 73\PG=C01 [X(C28H36Fe1O2P2)]\\@
 The archive entry for this job was punched.


    UPON JULIA'S CLOTHES

 WHENAS IN SILKS MY JULIA GOES,
 THEN, THEN, METHINKS, HOW SWEETLY FLOWS
 THAT LIQUEFACTION OF HER CLOTHES.

 NEXT, WHEN I CAST MINE EYES, AND SEE
 THAT BRAVE VIBRATION, EACH WAY FREE,
 O, HOW THAT GLITTERING TAKETH ME!
     -- ROBERT HERRICK, 1648
 Job cpu time:       0 days  0 hours 45 minutes 30.8 seconds.
 Elapsed time:       0 days  0 hours  1 minutes 36.0 seconds.
 File lengths (MBytes):  RWF=    400 Int=      0 D2E=      0 Chk=     24 Scr=     32
 Normal termination of Gaussian 16 at Fri Sep 29 19:33:22 2023.
