 Entering Gaussian System, Link 0=g16
 Input=free_ligand_L16_SP.inp
 Output=free_ligand_L16_SP.log
 Initial command:
 /sw/arch/Centos8/EB_production/2021/software/Gaussian/g16.c01/l1.exe "/scratch-local/adarsh.3296391/Gau-3321442.inp" -scrdir="/scratch-local/adarsh.3296391/"
 Entering Link 1 = /sw/arch/Centos8/EB_production/2021/software/Gaussian/g16.c01/l1.exe PID=   3321443.
  
 Copyright (c) 1988-2019, Gaussian, Inc.  All Rights Reserved.
  
 This is part of the Gaussian(R) 16 program.  It is based on
 the Gaussian(R) 09 system (copyright 2009, Gaussian, Inc.),
 the Gaussian(R) 03 system (copyright 2003, Gaussian, Inc.),
 the Gaussian(R) 98 system (copyright 1998, Gaussian, Inc.),
 the Gaussian(R) 94 system (copyright 1995, Gaussian, Inc.),
 the Gaussian 92(TM) system (copyright 1992, Gaussian, Inc.),
 the Gaussian 90(TM) system (copyright 1990, Gaussian, Inc.),
 the Gaussian 88(TM) system (copyright 1988, Gaussian, Inc.),
 the Gaussian 86(TM) system (copyright 1986, Carnegie Mellon
 University), and the Gaussian 82(TM) system (copyright 1983,
 Carnegie Mellon University). Gaussian is a federally registered
 trademark of Gaussian, Inc.
  
 This software contains proprietary and confidential information,
 including trade secrets, belonging to Gaussian, Inc.
  
 This software is provided under written license and may be
 used, copied, transmitted, or stored only in accord with that
 written license.
  
 The following legend is applicable only to US Government
 contracts under FAR:
  
                    RESTRICTED RIGHTS LEGEND
  
 Use, reproduction and disclosure by the US Government is
 subject to restrictions as set forth in subparagraphs (a)
 and (c) of the Commercial Computer Software - Restricted
 Rights clause in FAR 52.227-19.
  
 Gaussian, Inc.
 340 Quinnipiac St., Bldg. 40, Wallingford CT 06492
  
  
 ---------------------------------------------------------------
 Warning -- This program may not be used in any manner that
 competes with the business of Gaussian, Inc. or will provide
 assistance to any competitor of Gaussian, Inc.  The licensee
 of this program is prohibited from giving any competitor of
 Gaussian, Inc. access to this program.  By using this program,
 the user acknowledges that Gaussian, Inc. is engaged in the
 business of creating and licensing software in the field of
 computational chemistry and represents and warrants to the
 licensee that it is not a competitor of Gaussian, Inc. and that
 it will not use this program in any manner prohibited above.
 ---------------------------------------------------------------
  

 Cite this work as:
 Gaussian 16, Revision C.01,
 M. J. Frisch, G. W. Trucks, H. B. Schlegel, G. E. Scuseria, 
 M. A. Robb, J. R. Cheeseman, G. Scalmani, V. Barone, 
 G. A. Petersson, H. Nakatsuji, X. Li, M. Caricato, A. V. Marenich, 
 J. Bloino, B. G. Janesko, R. Gomperts, B. Mennucci, H. P. Hratchian, 
 J. V. Ortiz, A. F. Izmaylov, J. L. Sonnenberg, D. Williams-Young, 
 F. Ding, F. Lipparini, F. Egidi, J. Goings, B. Peng, A. Petrone, 
 T. Henderson, D. Ranasinghe, V. G. Zakrzewski, J. Gao, N. Rega, 
 G. Zheng, W. Liang, M. Hada, M. Ehara, K. Toyota, R. Fukuda, 
 J. Hasegawa, M. Ishida, T. Nakajima, Y. Honda, O. Kitao, H. Nakai, 
 T. Vreven, K. Throssell, J. A. Montgomery, Jr., J. E. Peralta, 
 F. Ogliaro, M. J. Bearpark, J. J. Heyd, E. N. Brothers, K. N. Kudin, 
 V. N. Staroverov, T. A. Keith, R. Kobayashi, J. Normand, 
 K. Raghavachari, A. P. Rendell, J. C. Burant, S. S. Iyengar, 
 J. Tomasi, M. Cossi, J. M. Millam, M. Klene, C. Adamo, R. Cammi, 
 J. W. Ochterski, R. L. Martin, K. Morokuma, O. Farkas, 
 J. B. Foresman, and D. J. Fox, Gaussian, Inc., Wallingford CT, 2019.
 
 ******************************************
 Gaussian 16:  ES64L-G16RevC.01  3-Jul-2019
                12-Aug-2023 
 ******************************************
 %nprocshared=32
 Will use up to   32 processors via shared memory.
 %mem=30GB
 %chk=free_ligand_L16.chk
 ----------------------------------------------------------------------
 #p pop=nbo NMR pbe1pbe/def2svpp empiricaldispersion=gd3bj integral=gri
 d=ultrafinegrid scf=(xqc,maxconventionalcycles=90) nosymm
 ----------------------------------------------------------------------
 1/38=1,172=1/1;
 2/12=2,15=1,17=6,18=5,40=1/2;
 3/5=43,7=202,11=2,25=1,30=1,74=-13,75=-5,124=41/1,2,3,8;
 4//1;
 5/5=2,8=3,13=1,38=5,85=90/2,8;
 8/6=1,10=90,11=11/1;
 10/13=100,31=1,45=16/2;
 6/7=2,8=2,9=2,10=2,28=1,40=1,64=1/1,7;
 99/9=1/99;
 Leave Link    1 at Sat Aug 12 02:55:51 2023, MaxMem=  4026531840 cpu:              23.1 elap:               0.7
 (Enter /sw/arch/Centos8/EB_production/2021/software/Gaussian/g16.c01/l101.exe)
 ----
 Cisa
 ----
 Symbolic Z-matrix:
 Charge =  0 Multiplicity = 1
 C                    -5.03201   0.19235  -1.24253 
 C                    -5.07739   1.61012  -1.11383 
 C                    -4.0359    2.15956  -1.91556 
 C                    -3.33928   1.0825   -2.53245 
 C                    -3.96529  -0.13049  -2.12363 
 H                    -5.68961  -0.5197   -0.74346 
 H                    -5.77205   2.17591  -0.49262 
 H                    -3.80772   3.22038  -2.02195 
 H                    -2.48757   1.17017  -3.20824 
 H                    -3.68385  -1.13332  -2.43889 
 Fe                   -3.26273   0.92281  -0.47979 
 C                    -2.50264   2.22992   0.88056 
 C                    -1.44536   1.51908   0.23578 
 C                    -1.61841   0.11083   0.51994 
 C                    -2.83241  -0.00142   1.28712 
 C                    -3.35301   1.29392   1.52628 
 H                    -2.67107   3.30464   0.83286 
 H                    -3.27806  -0.92575   1.6467 
 H                    -4.27171   1.52614   2.06473 
 C                    -0.39165   2.16285  -0.62233 
 H                    -0.40267   1.64863  -1.60005 
 P                    -0.32632  -1.18433   0.42325 
 C                    -0.63955   3.64781  -0.87587 
 H                     0.08564   4.05769  -1.59327 
 H                    -1.64807   3.77951  -1.30048 
 H                    -0.57275   4.25655   0.03861 
 P                     1.3154    1.72178  -0.01809 
 C                     1.48496   2.17592   1.73687 
 C                     1.86506   2.77153   4.44948 
 C                     2.74666   1.91046   3.79509 
 C                     2.55111   1.60654   2.45087 
 C                     0.61009   3.04346   2.3998 
 C                     0.79626   3.33136   3.75124 
 H                     2.00877   3.00251   5.50881 
 H                     3.5821    1.46058   4.33873 
 H                     3.21537   0.89388   1.95364 
 H                    -0.23617   3.48678   1.8754 
 H                     0.09817   4.00091   4.26139 
 C                     2.39159   2.91281  -0.89243 
 C                     4.03836   4.68595  -2.30878 
 C                     4.14279   4.58747  -0.92366 
 C                     3.32107   3.70864  -0.21537 
 C                     2.29572   3.0146   -2.29012 
 C                     3.10858   3.89916  -2.99222 
 H                     4.67971   5.37916  -2.86025 
 H                     4.86496   5.20518  -0.38234 
 H                     3.401     3.6548    0.87362 
 H                     1.57463   2.39902  -2.83978 
 H                     3.01781   3.97534  -4.07954 
 C                    -1.06253  -2.54135  -0.66933 
 C                    -2.53326  -2.8467   -0.38264 
 H                    -2.6826   -3.32592   0.59534 
 H                    -3.15134  -1.93941  -0.43094 
 H                    -2.90386  -3.55096  -1.15053 
 C                    -0.94545  -1.96158  -2.08555 
 H                    -1.48473  -1.00364  -2.1576 
 H                     0.1015   -1.77055  -2.37134 
 H                    -1.3868   -2.66329  -2.81725 
 C                    -0.25505  -3.83562  -0.54627 
 H                     0.83032  -3.67649  -0.60361 
 H                    -0.46665  -4.3633    0.39694 
 H                    -0.53788  -4.51722  -1.36899 
 C                    -0.17822  -1.75921   2.24669 
 C                    -1.25169  -2.74589   2.7084 
 H                    -2.27078  -2.33997   2.6337 
 H                    -1.2136   -3.7043    2.16927 
 H                    -1.07415  -2.96843   3.77646 
 C                     1.19211  -2.41789   2.42117 
 H                     1.29043  -3.33987   1.82515 
 H                     2.00584  -1.72446   2.14538 
 H                     1.32424  -2.6982    3.48187 
 C                    -0.22769  -0.52402   3.14977 
 H                     0.51949   0.22805   2.86158 
 H                    -1.21667  -0.04185   3.15298 
 H                    -0.00139  -0.83923   4.18439 
 
 ITRead=  0  0  0  0  0  0  0  0  0  0  0  0  0  0  0  0  0  0  0  0
 ITRead=  0  0  0  0  0  0  0  0  0  0  0  0  0  0  0  0  0  0  0  0
 ITRead=  0  0  0  0  0  0  0  0  0  0  0  0  0  0  0  0  0  0  0  0
 ITRead=  0  0  0  0  0  0  0  0  0  0  0  0  0  0  0
 MicOpt= -1 -1 -1 -1 -1 -1 -1 -1 -1 -1 -1 -1 -1 -1 -1 -1 -1 -1 -1 -1
 MicOpt= -1 -1 -1 -1 -1 -1 -1 -1 -1 -1 -1 -1 -1 -1 -1 -1 -1 -1 -1 -1
 MicOpt= -1 -1 -1 -1 -1 -1 -1 -1 -1 -1 -1 -1 -1 -1 -1 -1 -1 -1 -1 -1
 MicOpt= -1 -1 -1 -1 -1 -1 -1 -1 -1 -1 -1 -1 -1 -1 -1
 NAtoms=     75 NQM=       75 NQMF=       0 NMMI=      0 NMMIF=      0
                NMic=       0 NMicF=      0.
                    Isotopes and Nuclear Properties:
 (Nuclear quadrupole moments (NQMom) in fm**2, nuclear magnetic moments (NMagM)
  in nuclear magnetons)

  Atom         1           2           3           4           5           6           7           8           9          10
 IAtWgt=          12          12          12          12          12           1           1           1           1           1
 AtmWgt=  12.0000000  12.0000000  12.0000000  12.0000000  12.0000000   1.0078250   1.0078250   1.0078250   1.0078250   1.0078250
 NucSpn=           0           0           0           0           0           1           1           1           1           1
 AtZEff=  -0.0000000  -0.0000000  -0.0000000  -0.0000000  -0.0000000  -0.0000000  -0.0000000  -0.0000000  -0.0000000  -0.0000000
 NQMom=    0.0000000   0.0000000   0.0000000   0.0000000   0.0000000   0.0000000   0.0000000   0.0000000   0.0000000   0.0000000
 NMagM=    0.0000000   0.0000000   0.0000000   0.0000000   0.0000000   2.7928460   2.7928460   2.7928460   2.7928460   2.7928460
 AtZNuc=   6.0000000   6.0000000   6.0000000   6.0000000   6.0000000   1.0000000   1.0000000   1.0000000   1.0000000   1.0000000

  Atom        11          12          13          14          15          16          17          18          19          20
 IAtWgt=          56          12          12          12          12          12           1           1           1          12
 AtmWgt=  55.9349393  12.0000000  12.0000000  12.0000000  12.0000000  12.0000000   1.0078250   1.0078250   1.0078250  12.0000000
 NucSpn=           0           0           0           0           0           0           1           1           1           0
 AtZEff=  -0.0000000  -0.0000000  -0.0000000  -0.0000000  -0.0000000  -0.0000000  -0.0000000  -0.0000000  -0.0000000  -0.0000000
 NQMom=    0.0000000   0.0000000   0.0000000   0.0000000   0.0000000   0.0000000   0.0000000   0.0000000   0.0000000   0.0000000
 NMagM=    0.0000000   0.0000000   0.0000000   0.0000000   0.0000000   0.0000000   2.7928460   2.7928460   2.7928460   0.0000000
 AtZNuc=  26.0000000   6.0000000   6.0000000   6.0000000   6.0000000   6.0000000   1.0000000   1.0000000   1.0000000   6.0000000

  Atom        21          22          23          24          25          26          27          28          29          30
 IAtWgt=           1          31          12           1           1           1          31          12          12          12
 AtmWgt=   1.0078250  30.9737634  12.0000000   1.0078250   1.0078250   1.0078250  30.9737634  12.0000000  12.0000000  12.0000000
 NucSpn=           1           1           0           1           1           1           1           0           0           0
 AtZEff=  -0.0000000  -0.0000000  -0.0000000  -0.0000000  -0.0000000  -0.0000000  -0.0000000  -0.0000000  -0.0000000  -0.0000000
 NQMom=    0.0000000   0.0000000   0.0000000   0.0000000   0.0000000   0.0000000   0.0000000   0.0000000   0.0000000   0.0000000
 NMagM=    2.7928460   1.1316000   0.0000000   2.7928460   2.7928460   2.7928460   1.1316000   0.0000000   0.0000000   0.0000000
 AtZNuc=   1.0000000  15.0000000   6.0000000   1.0000000   1.0000000   1.0000000  15.0000000   6.0000000   6.0000000   6.0000000

  Atom        31          32          33          34          35          36          37          38          39          40
 IAtWgt=          12          12          12           1           1           1           1           1          12          12
 AtmWgt=  12.0000000  12.0000000  12.0000000   1.0078250   1.0078250   1.0078250   1.0078250   1.0078250  12.0000000  12.0000000
 NucSpn=           0           0           0           1           1           1           1           1           0           0
 AtZEff=  -0.0000000  -0.0000000  -0.0000000  -0.0000000  -0.0000000  -0.0000000  -0.0000000  -0.0000000  -0.0000000  -0.0000000
 NQMom=    0.0000000   0.0000000   0.0000000   0.0000000   0.0000000   0.0000000   0.0000000   0.0000000   0.0000000   0.0000000
 NMagM=    0.0000000   0.0000000   0.0000000   2.7928460   2.7928460   2.7928460   2.7928460   2.7928460   0.0000000   0.0000000
 AtZNuc=   6.0000000   6.0000000   6.0000000   1.0000000   1.0000000   1.0000000   1.0000000   1.0000000   6.0000000   6.0000000

  Atom        41          42          43          44          45          46          47          48          49          50
 IAtWgt=          12          12          12          12           1           1           1           1           1          12
 AtmWgt=  12.0000000  12.0000000  12.0000000  12.0000000   1.0078250   1.0078250   1.0078250   1.0078250   1.0078250  12.0000000
 NucSpn=           0           0           0           0           1           1           1           1           1           0
 AtZEff=  -0.0000000  -0.0000000  -0.0000000  -0.0000000  -0.0000000  -0.0000000  -0.0000000  -0.0000000  -0.0000000  -0.0000000
 NQMom=    0.0000000   0.0000000   0.0000000   0.0000000   0.0000000   0.0000000   0.0000000   0.0000000   0.0000000   0.0000000
 NMagM=    0.0000000   0.0000000   0.0000000   0.0000000   2.7928460   2.7928460   2.7928460   2.7928460   2.7928460   0.0000000
 AtZNuc=   6.0000000   6.0000000   6.0000000   6.0000000   1.0000000   1.0000000   1.0000000   1.0000000   1.0000000   6.0000000

  Atom        51          52          53          54          55          56          57          58          59          60
 IAtWgt=          12           1           1           1          12           1           1           1          12           1
 AtmWgt=  12.0000000   1.0078250   1.0078250   1.0078250  12.0000000   1.0078250   1.0078250   1.0078250  12.0000000   1.0078250
 NucSpn=           0           1           1           1           0           1           1           1           0           1
 AtZEff=  -0.0000000  -0.0000000  -0.0000000  -0.0000000  -0.0000000  -0.0000000  -0.0000000  -0.0000000  -0.0000000  -0.0000000
 NQMom=    0.0000000   0.0000000   0.0000000   0.0000000   0.0000000   0.0000000   0.0000000   0.0000000   0.0000000   0.0000000
 NMagM=    0.0000000   2.7928460   2.7928460   2.7928460   0.0000000   2.7928460   2.7928460   2.7928460   0.0000000   2.7928460
 AtZNuc=   6.0000000   1.0000000   1.0000000   1.0000000   6.0000000   1.0000000   1.0000000   1.0000000   6.0000000   1.0000000

  Atom        61          62          63          64          65          66          67          68          69          70
 IAtWgt=           1           1          12          12           1           1           1          12           1           1
 AtmWgt=   1.0078250   1.0078250  12.0000000  12.0000000   1.0078250   1.0078250   1.0078250  12.0000000   1.0078250   1.0078250
 NucSpn=           1           1           0           0           1           1           1           0           1           1
 AtZEff=  -0.0000000  -0.0000000  -0.0000000  -0.0000000  -0.0000000  -0.0000000  -0.0000000  -0.0000000  -0.0000000  -0.0000000
 NQMom=    0.0000000   0.0000000   0.0000000   0.0000000   0.0000000   0.0000000   0.0000000   0.0000000   0.0000000   0.0000000
 NMagM=    2.7928460   2.7928460   0.0000000   0.0000000   2.7928460   2.7928460   2.7928460   0.0000000   2.7928460   2.7928460
 AtZNuc=   1.0000000   1.0000000   6.0000000   6.0000000   1.0000000   1.0000000   1.0000000   6.0000000   1.0000000   1.0000000

  Atom        71          72          73          74          75
 IAtWgt=           1          12           1           1           1
 AtmWgt=   1.0078250  12.0000000   1.0078250   1.0078250   1.0078250
 NucSpn=           1           0           1           1           1
 AtZEff=  -0.0000000  -0.0000000  -0.0000000  -0.0000000  -0.0000000
 NQMom=    0.0000000   0.0000000   0.0000000   0.0000000   0.0000000
 NMagM=    2.7928460   0.0000000   2.7928460   2.7928460   2.7928460
 AtZNuc=   1.0000000   6.0000000   1.0000000   1.0000000   1.0000000
 Leave Link  101 at Sat Aug 12 02:55:51 2023, MaxMem=  4026531840 cpu:               4.0 elap:               0.1
 (Enter /sw/arch/Centos8/EB_production/2021/software/Gaussian/g16.c01/l202.exe)
 Symmetry turned off by external request.
 Stoichiometry    C32H40FeP2
 Framework group  C1[X(C32H40FeP2)]
 Deg. of freedom   219
 Full point group                 C1      NOp   1
                          Input orientation:                          
 ---------------------------------------------------------------------
 Center     Atomic      Atomic             Coordinates (Angstroms)
 Number     Number       Type             X           Y           Z
 ---------------------------------------------------------------------
      1          6           0       -5.032010    0.192350   -1.242530
      2          6           0       -5.077390    1.610120   -1.113830
      3          6           0       -4.035900    2.159560   -1.915560
      4          6           0       -3.339280    1.082500   -2.532450
      5          6           0       -3.965290   -0.130490   -2.123630
      6          1           0       -5.689610   -0.519700   -0.743460
      7          1           0       -5.772050    2.175910   -0.492620
      8          1           0       -3.807720    3.220380   -2.021950
      9          1           0       -2.487570    1.170170   -3.208240
     10          1           0       -3.683850   -1.133320   -2.438890
     11         26           0       -3.262730    0.922810   -0.479790
     12          6           0       -2.502640    2.229920    0.880560
     13          6           0       -1.445360    1.519080    0.235780
     14          6           0       -1.618410    0.110830    0.519940
     15          6           0       -2.832410   -0.001420    1.287120
     16          6           0       -3.353010    1.293920    1.526280
     17          1           0       -2.671070    3.304640    0.832860
     18          1           0       -3.278060   -0.925750    1.646700
     19          1           0       -4.271710    1.526140    2.064730
     20          6           0       -0.391650    2.162850   -0.622330
     21          1           0       -0.402670    1.648630   -1.600050
     22         15           0       -0.326320   -1.184330    0.423250
     23          6           0       -0.639550    3.647810   -0.875870
     24          1           0        0.085640    4.057690   -1.593270
     25          1           0       -1.648070    3.779510   -1.300480
     26          1           0       -0.572750    4.256550    0.038610
     27         15           0        1.315400    1.721780   -0.018090
     28          6           0        1.484960    2.175920    1.736870
     29          6           0        1.865060    2.771530    4.449480
     30          6           0        2.746660    1.910460    3.795090
     31          6           0        2.551110    1.606540    2.450870
     32          6           0        0.610090    3.043460    2.399800
     33          6           0        0.796260    3.331360    3.751240
     34          1           0        2.008770    3.002510    5.508810
     35          1           0        3.582100    1.460580    4.338730
     36          1           0        3.215370    0.893880    1.953640
     37          1           0       -0.236170    3.486780    1.875400
     38          1           0        0.098170    4.000910    4.261390
     39          6           0        2.391590    2.912810   -0.892430
     40          6           0        4.038360    4.685950   -2.308780
     41          6           0        4.142790    4.587470   -0.923660
     42          6           0        3.321070    3.708640   -0.215370
     43          6           0        2.295720    3.014600   -2.290120
     44          6           0        3.108580    3.899160   -2.992220
     45          1           0        4.679710    5.379160   -2.860250
     46          1           0        4.864960    5.205180   -0.382340
     47          1           0        3.401000    3.654800    0.873620
     48          1           0        1.574630    2.399020   -2.839780
     49          1           0        3.017810    3.975340   -4.079540
     50          6           0       -1.062530   -2.541350   -0.669330
     51          6           0       -2.533260   -2.846700   -0.382640
     52          1           0       -2.682600   -3.325920    0.595340
     53          1           0       -3.151340   -1.939410   -0.430940
     54          1           0       -2.903860   -3.550960   -1.150530
     55          6           0       -0.945450   -1.961580   -2.085550
     56          1           0       -1.484730   -1.003640   -2.157600
     57          1           0        0.101500   -1.770550   -2.371340
     58          1           0       -1.386800   -2.663290   -2.817250
     59          6           0       -0.255050   -3.835620   -0.546270
     60          1           0        0.830320   -3.676490   -0.603610
     61          1           0       -0.466650   -4.363300    0.396940
     62          1           0       -0.537880   -4.517220   -1.368990
     63          6           0       -0.178220   -1.759210    2.246690
     64          6           0       -1.251690   -2.745890    2.708400
     65          1           0       -2.270780   -2.339970    2.633700
     66          1           0       -1.213600   -3.704300    2.169270
     67          1           0       -1.074150   -2.968430    3.776460
     68          6           0        1.192110   -2.417890    2.421170
     69          1           0        1.290430   -3.339870    1.825150
     70          1           0        2.005840   -1.724460    2.145380
     71          1           0        1.324240   -2.698200    3.481870
     72          6           0       -0.227690   -0.524020    3.149770
     73          1           0        0.519490    0.228050    2.861580
     74          1           0       -1.216670   -0.041850    3.152980
     75          1           0       -0.001390   -0.839230    4.184390
 ---------------------------------------------------------------------
 Rotational constants (GHZ):           0.1361073           0.0895547           0.0752573
 Leave Link  202 at Sat Aug 12 02:55:51 2023, MaxMem=  4026531840 cpu:               0.1 elap:               0.0
 (Enter /sw/arch/Centos8/EB_production/2021/software/Gaussian/g16.c01/l301.exe)
 Standard basis: def2SVPP (5D, 7F)
 Ernie: Thresh=  0.10000D-02 Tol=  0.10000D-05 Strict=F.
   588 basis functions,  1105 primitive gaussians,   624 cartesian basis functions
   144 alpha electrons      144 beta electrons
       nuclear repulsion energy      5118.0005514120 Hartrees.
 IExCor= 1009 DFT=T Ex+Corr=PBE1PBE ExCW=0 ScaHFX=  0.250000
 ScaDFX=  0.750000  0.750000  1.000000  1.000000 ScalE2=  1.000000  1.000000
 IRadAn=      5 IRanWt=     -1 IRanGd=            0 ICorTp=0 IEmpDi=141
 NAtoms=   75 NActive=   75 NUniq=   75 SFac= 1.00D+00 NAtFMM=   60 NAOKFM=T Big=T
 Integral buffers will be    131072 words long.
 Raffenetti 2 integral format.
 Two-electron integral symmetry is turned off.
 R6Disp:  Grimme-D3(BJ) Dispersion energy=       -0.1169769463 Hartrees.
 Nuclear repulsion after empirical dispersion term =     5117.8835744657 Hartrees.
 Leave Link  301 at Sat Aug 12 02:55:51 2023, MaxMem=  4026531840 cpu:               0.8 elap:               0.0
 (Enter /sw/arch/Centos8/EB_production/2021/software/Gaussian/g16.c01/l302.exe)
 NPDir=0 NMtPBC=     1 NCelOv=     1 NCel=       1 NClECP=     1 NCelD=      1
         NCelK=      1 NCelE2=     1 NClLst=     1 CellRange=     0.0.
 One-electron integrals computed using PRISM.
   1 Symmetry operations used in ECPInt.
 ECPInt:  NShTT=   44551 NPrTT=  185758 LenC2=   40188 LenP2D=  107503.
 LDataN:  DoStor=T MaxTD1= 4 Len=   56
 NBasis=   588 RedAO= T EigKep=  2.68D-04  NBF=   588
 NBsUse=   588 1.00D-06 EigRej= -1.00D+00 NBFU=   588
 Precomputing XC quadrature grid using
 IXCGrd= 4 IRadAn=           5 IRanWt=          -1 IRanGd=           0 AccXCQ= 0.00D+00.
 Generated NRdTot=       0 NPtTot=           0 NUsed=           0 NTot=          32
 NSgBfM=   614   614   614   614   614 MxSgAt=    75 MxSgA2=    75.
 Leave Link  302 at Sat Aug 12 02:55:52 2023, MaxMem=  4026531840 cpu:              27.0 elap:               0.9
 (Enter /sw/arch/Centos8/EB_production/2021/software/Gaussian/g16.c01/l303.exe)
 DipDrv:  MaxL=1.
 Leave Link  303 at Sat Aug 12 02:55:52 2023, MaxMem=  4026531840 cpu:               2.6 elap:               0.1
 (Enter /sw/arch/Centos8/EB_production/2021/software/Gaussian/g16.c01/l308.exe)
 Leave Link  308 at Sat Aug 12 02:55:53 2023, MaxMem=  4026531840 cpu:               3.5 elap:               0.1
 (Enter /sw/arch/Centos8/EB_production/2021/software/Gaussian/g16.c01/l401.exe)
 ExpMin= 3.37D-02 ExpMax= 6.09D+04 ExpMxC= 9.15D+03 IAcc=3 IRadAn=         5 AccDes= 0.00D+00
 Harris functional with IExCor= 1009 and IRadAn=       5 diagonalized for initial guess.
 HarFok:  IExCor= 1009 AccDes= 0.00D+00 IRadAn=         5 IDoV= 1 UseB2=F ITyADJ=14
 ICtDFT=  3500011 ScaDFX=  1.000000  1.000000  1.000000  1.000000
 FoFCou: FMM=F IPFlag=           0 FMFlag=      100000 FMFlg1=        2001
         NFxFlg=           0 DoJE=T BraDBF=F KetDBF=T FulRan=T
         wScrn=  0.000000 ICntrl=       500 IOpCl=  0 I1Cent=   200000004 NGrid=           0
         NMat0=    1 NMatS0=      1 NMatT0=    0 NMatD0=    1 NMtDS0=    0 NMtDT0=    0
 Symmetry not used in FoFCou.
 Harris En= -3187.05606280260    
 JPrj=0 DoOrth=F DoCkMO=F.
 Leave Link  401 at Sat Aug 12 02:55:55 2023, MaxMem=  4026531840 cpu:              86.4 elap:               2.8
 (Enter /sw/arch/Centos8/EB_production/2021/software/Gaussian/g16.c01/l502.exe)
 Two-electron integral symmetry not used.
 Closed shell SCF:
 Using DIIS extrapolation, IDIIS=  1040.
 NGot=  4026531840 LenX=  4025724884 LenY=  4025334884
 Requested convergence on RMS density matrix=1.00D-08 within  90 cycles.
 Requested convergence on MAX density matrix=1.00D-06.
 Requested convergence on             energy=1.00D-06.
 No special actions if energy rises.
 Fock matrices will be formed incrementally for  20 cycles.

 Cycle   1  Pass 1  IDiag  1:
 FoFJK:  IHMeth= 1 ICntrl=       0 DoSepK=F KAlg= 0 I1Cent=           0 FoldK=F
 IRaf= 990000000 NMat=       1 IRICut=       1 DoRegI=T DoRafI=F ISym2E= 0 IDoP0=0 IntGTp=1.
 FoFCou: FMM=T IPFlag=           0 FMFlag=      100000 FMFlg1=        2001
         NFxFlg=           0 DoJE=F BraDBF=F KetDBF=F FulRan=T
         wScrn=  0.000000 ICntrl=         0 IOpCl=  0 I1Cent=           0 NGrid=           0
         NMat0=    1 NMatS0=      1 NMatT0=    0 NMatD0=    1 NMtDS0=    0 NMtDT0=    0
 Symmetry not used in FoFCou.
 FMM levels:  10  Number of levels for PrismC:   9
 E= -3185.79376686850    
 DIIS: error= 2.42D-02 at cycle   1 NSaved=   1.
 NSaved= 1 IEnMin= 1 EnMin= -3185.79376686850     IErMin= 1 ErrMin= 2.42D-02
 ErrMax= 2.42D-02  0.00D+00 EMaxC= 1.00D-01 BMatC= 8.61D-01 BMatP= 8.61D-01
 IDIUse=3 WtCom= 7.58D-01 WtEn= 2.42D-01
 Coeff-Com:  0.100D+01
 Coeff-En:   0.100D+01
 Coeff:      0.100D+01
 Gap=     0.187 Goal=   None    Shift=    0.000
 GapD=    0.187 DampG=1.000 DampE=0.250 DampFc=0.2500 IDamp=-1.
 Damping current iteration by 2.50D-01
 RMSDP=4.73D-03 MaxDP=1.69D-01              OVMax= 1.80D-01

 Cycle   2  Pass 1  IDiag  1:
 RMSU=  1.11D-03    CP:  9.78D-01
 E= -3186.10690976441     Delta-E=       -0.313142895913 Rises=F Damp=T
 DIIS: error= 1.35D-02 at cycle   2 NSaved=   2.
 NSaved= 2 IEnMin= 2 EnMin= -3186.10690976441     IErMin= 2 ErrMin= 1.35D-02
 ErrMax= 1.35D-02  0.00D+00 EMaxC= 1.00D-01 BMatC= 2.18D-01 BMatP= 8.61D-01
 IDIUse=3 WtCom= 8.65D-01 WtEn= 1.35D-01
 Coeff-Com: -0.472D+00 0.147D+01
 Coeff-En:   0.000D+00 0.100D+01
 Coeff:     -0.408D+00 0.141D+01
 Gap=     0.281 Goal=   None    Shift=    0.000
 RMSDP=4.89D-03 MaxDP=3.14D-01 DE=-3.13D-01 OVMax= 5.00D-01

 Cycle   3  Pass 1  IDiag  1:
 RMSU=  4.86D-03    CP:  9.73D-01  1.44D+00
 E= -3184.61605585852     Delta-E=        1.490853905887 Rises=F Damp=F
 DIIS: error= 1.05D-01 at cycle   3 NSaved=   3.
 NSaved= 3 IEnMin= 2 EnMin= -3186.10690976441     IErMin= 2 ErrMin= 1.35D-02
 ErrMax= 1.05D-01  0.00D+00 EMaxC= 1.00D-01 BMatC= 3.23D+00 BMatP= 2.18D-01
 IDIUse=2 WtCom= 0.00D+00 WtEn= 1.00D+00
 Coeff-En:   0.000D+00 0.826D+00 0.174D+00
 Coeff:      0.000D+00 0.826D+00 0.174D+00
 Gap=     0.322 Goal=   None    Shift=    0.000
 RMSDP=5.98D-03 MaxDP=3.63D-01 DE= 1.49D+00 OVMax= 3.82D-01

 Cycle   4  Pass 1  IDiag  1:
 RMSU=  1.28D-03    CP:  9.21D-01  2.82D+00 -1.44D-01
 E= -3185.58910030021     Delta-E=       -0.973044441682 Rises=F Damp=F
 DIIS: error= 6.23D-02 at cycle   4 NSaved=   4.
 NSaved= 4 IEnMin= 2 EnMin= -3186.10690976441     IErMin= 2 ErrMin= 1.35D-02
 ErrMax= 6.23D-02  0.00D+00 EMaxC= 1.00D-01 BMatC= 1.88D+00 BMatP= 2.18D-01
 IDIUse=2 WtCom= 0.00D+00 WtEn= 1.00D+00
 EnCoef did     2 forward-backward iterations
 Coeff-En:   0.985D-01 0.000D+00 0.358D+00 0.543D+00
 Coeff:      0.985D-01 0.000D+00 0.358D+00 0.543D+00
 Gap=     0.136 Goal=   None    Shift=    0.000
 RMSDP=2.69D-03 MaxDP=1.90D-01 DE=-9.73D-01 OVMax= 2.48D-01

 Cycle   5  Pass 1  IDiag  1:
 RMSU=  1.03D-03    CP:  9.62D-01  1.45D+00  2.04D-01  5.07D-01
 E= -3186.65001899087     Delta-E=       -1.060918690662 Rises=F Damp=F
 DIIS: error= 9.98D-03 at cycle   5 NSaved=   5.
 NSaved= 5 IEnMin= 5 EnMin= -3186.65001899087     IErMin= 5 ErrMin= 9.98D-03
 ErrMax= 9.98D-03  0.00D+00 EMaxC= 1.00D-01 BMatC= 7.99D-02 BMatP= 2.18D-01
 IDIUse=3 WtCom= 9.00D-01 WtEn= 9.98D-02
 Coeff-Com: -0.575D+00 0.787D+00 0.242D-02-0.426D-01 0.829D+00
 Coeff-En:   0.000D+00 0.000D+00 0.000D+00 0.857D-01 0.914D+00
 Coeff:     -0.518D+00 0.708D+00 0.218D-02-0.298D-01 0.837D+00
 Gap=     0.159 Goal=   None    Shift=    0.000
 RMSDP=6.64D-04 MaxDP=3.31D-02 DE=-1.06D+00 OVMax= 4.33D-02

 Cycle   6  Pass 1  IDiag  1:
 RMSU=  2.39D-04    CP:  9.52D-01  1.93D+00  1.65D-01  4.13D-01  9.19D-01
 E= -3186.71406456211     Delta-E=       -0.064045571242 Rises=F Damp=F
 DIIS: error= 1.32D-03 at cycle   6 NSaved=   6.
 NSaved= 6 IEnMin= 6 EnMin= -3186.71406456211     IErMin= 6 ErrMin= 1.32D-03
 ErrMax= 1.32D-03  0.00D+00 EMaxC= 1.00D-01 BMatC= 1.33D-03 BMatP= 7.99D-02
 IDIUse=3 WtCom= 9.87D-01 WtEn= 1.32D-02
 Coeff-Com: -0.266D+00 0.359D+00-0.269D-02-0.271D-01 0.413D+00 0.523D+00
 Coeff-En:   0.000D+00 0.000D+00 0.000D+00 0.000D+00 0.000D+00 0.100D+01
 Coeff:     -0.262D+00 0.354D+00-0.266D-02-0.267D-01 0.408D+00 0.530D+00
 Gap=     0.158 Goal=   None    Shift=    0.000
 RMSDP=1.14D-04 MaxDP=7.65D-03 DE=-6.40D-02 OVMax= 7.51D-03

 Cycle   7  Pass 1  IDiag  1:
 RMSU=  7.41D-05    CP:  9.52D-01  1.90D+00  1.64D-01  4.15D-01  9.49D-01
                    CP:  7.16D-01
 E= -3186.71517681721     Delta-E=       -0.001112255102 Rises=F Damp=F
 DIIS: error= 4.22D-04 at cycle   7 NSaved=   7.
 NSaved= 7 IEnMin= 7 EnMin= -3186.71517681721     IErMin= 7 ErrMin= 4.22D-04
 ErrMax= 4.22D-04  0.00D+00 EMaxC= 1.00D-01 BMatC= 1.19D-04 BMatP= 1.33D-03
 IDIUse=3 WtCom= 9.96D-01 WtEn= 4.22D-03
 Coeff-Com: -0.340D-01 0.421D-01-0.337D-02-0.496D-02 0.624D-01 0.248D+00
 Coeff-Com:  0.690D+00
 Coeff-En:   0.000D+00 0.000D+00 0.000D+00 0.000D+00 0.000D+00 0.266D-02
 Coeff-En:   0.997D+00
 Coeff:     -0.339D-01 0.419D-01-0.335D-02-0.494D-02 0.622D-01 0.247D+00
 Coeff:      0.691D+00
 Gap=     0.158 Goal=   None    Shift=    0.000
 RMSDP=4.99D-05 MaxDP=2.70D-03 DE=-1.11D-03 OVMax= 3.18D-03

 Cycle   8  Pass 1  IDiag  1:
 RMSU=  3.09D-05    CP:  9.52D-01  1.91D+00  1.58D-01  4.27D-01  9.46D-01
                    CP:  7.82D-01  8.52D-01
 E= -3186.71529796578     Delta-E=       -0.000121148563 Rises=F Damp=F
 DIIS: error= 1.85D-04 at cycle   8 NSaved=   8.
 NSaved= 8 IEnMin= 8 EnMin= -3186.71529796578     IErMin= 8 ErrMin= 1.85D-04
 ErrMax= 1.85D-04  0.00D+00 EMaxC= 1.00D-01 BMatC= 1.97D-05 BMatP= 1.19D-04
 IDIUse=3 WtCom= 9.98D-01 WtEn= 1.85D-03
 Coeff-Com:  0.107D-01-0.162D-01-0.193D-02 0.178D-03-0.140D-01 0.729D-01
 Coeff-Com:  0.380D+00 0.568D+00
 Coeff-En:   0.000D+00 0.000D+00 0.000D+00 0.000D+00 0.000D+00 0.000D+00
 Coeff-En:   0.000D+00 0.100D+01
 Coeff:      0.107D-01-0.162D-01-0.193D-02 0.178D-03-0.140D-01 0.727D-01
 Coeff:      0.380D+00 0.569D+00
 Gap=     0.158 Goal=   None    Shift=    0.000
 RMSDP=1.91D-05 MaxDP=1.40D-03 DE=-1.21D-04 OVMax= 1.54D-03

 Cycle   9  Pass 1  IDiag  1:
 RMSU=  1.34D-05    CP:  9.52D-01  1.91D+00  1.56D-01  4.29D-01  9.45D-01
                    CP:  7.95D-01  9.55D-01  8.75D-01
 E= -3186.71531933663     Delta-E=       -0.000021370855 Rises=F Damp=F
 DIIS: error= 8.34D-05 at cycle   9 NSaved=   9.
 NSaved= 9 IEnMin= 9 EnMin= -3186.71531933663     IErMin= 9 ErrMin= 8.34D-05
 ErrMax= 8.34D-05  0.00D+00 EMaxC= 1.00D-01 BMatC= 4.26D-06 BMatP= 1.97D-05
 IDIUse=1 WtCom= 1.00D+00 WtEn= 0.00D+00
 Coeff-Com:  0.101D-01-0.135D-01-0.591D-03 0.106D-02-0.176D-01-0.152D-01
 Coeff-Com:  0.301D-01 0.286D+00 0.720D+00
 Coeff:      0.101D-01-0.135D-01-0.591D-03 0.106D-02-0.176D-01-0.152D-01
 Coeff:      0.301D-01 0.286D+00 0.720D+00
 Gap=     0.158 Goal=   None    Shift=    0.000
 RMSDP=9.87D-06 MaxDP=4.95D-04 DE=-2.14D-05 OVMax= 6.54D-04

 Cycle  10  Pass 1  IDiag  1:
 RMSU=  4.77D-06    CP:  9.52D-01  1.91D+00  1.55D-01  4.31D-01  9.44D-01
                    CP:  7.97D-01  9.73D-01  1.01D+00  9.65D-01
 E= -3186.71532315182     Delta-E=       -0.000003815192 Rises=F Damp=F
 DIIS: error= 5.25D-05 at cycle  10 NSaved=  10.
 NSaved=10 IEnMin=10 EnMin= -3186.71532315182     IErMin=10 ErrMin= 5.25D-05
 ErrMax= 5.25D-05  0.00D+00 EMaxC= 1.00D-01 BMatC= 1.14D-06 BMatP= 4.26D-06
 IDIUse=1 WtCom= 1.00D+00 WtEn= 0.00D+00
 Coeff-Com:  0.383D-02-0.477D-02-0.251D-03 0.653D-03-0.747D-02-0.153D-01
 Coeff-Com: -0.276D-01 0.924D-01 0.398D+00 0.560D+00
 Coeff:      0.383D-02-0.477D-02-0.251D-03 0.653D-03-0.747D-02-0.153D-01
 Coeff:     -0.276D-01 0.924D-01 0.398D+00 0.560D+00
 Gap=     0.158 Goal=   None    Shift=    0.000
 RMSDP=2.86D-06 MaxDP=1.24D-04 DE=-3.82D-06 OVMax= 2.25D-04

 Cycle  11  Pass 1  IDiag  1:
 RMSU=  1.55D-06    CP:  9.52D-01  1.91D+00  1.55D-01  4.31D-01  9.44D-01
                    CP:  8.00D-01  9.77D-01  1.03D+00  1.02D+00  7.60D-01
 E= -3186.71532397523     Delta-E=       -0.000000823402 Rises=F Damp=F
 DIIS: error= 2.27D-05 at cycle  11 NSaved=  11.
 NSaved=11 IEnMin=11 EnMin= -3186.71532397523     IErMin=11 ErrMin= 2.27D-05
 ErrMax= 2.27D-05  0.00D+00 EMaxC= 1.00D-01 BMatC= 2.10D-07 BMatP= 1.14D-06
 IDIUse=1 WtCom= 1.00D+00 WtEn= 0.00D+00
 Coeff-Com:  0.911D-03-0.101D-02-0.127D-03 0.339D-03-0.192D-02-0.634D-02
 Coeff-Com: -0.200D-01 0.165D-01 0.137D+00 0.300D+00 0.575D+00
 Coeff:      0.911D-03-0.101D-02-0.127D-03 0.339D-03-0.192D-02-0.634D-02
 Coeff:     -0.200D-01 0.165D-01 0.137D+00 0.300D+00 0.575D+00
 Gap=     0.158 Goal=   None    Shift=    0.000
 RMSDP=1.10D-06 MaxDP=6.18D-05 DE=-8.23D-07 OVMax= 1.08D-04

 Cycle  12  Pass 1  IDiag  1:
 RMSU=  7.93D-07    CP:  9.52D-01  1.91D+00  1.55D-01  4.31D-01  9.43D-01
                    CP:  8.00D-01  9.79D-01  1.04D+00  1.03D+00  8.05D-01
                    CP:  9.15D-01
 E= -3186.71532412054     Delta-E=       -0.000000145319 Rises=F Damp=F
 DIIS: error= 8.47D-06 at cycle  12 NSaved=  12.
 NSaved=12 IEnMin=12 EnMin= -3186.71532412054     IErMin=12 ErrMin= 8.47D-06
 ErrMax= 8.47D-06  0.00D+00 EMaxC= 1.00D-01 BMatC= 3.95D-08 BMatP= 2.10D-07
 IDIUse=1 WtCom= 1.00D+00 WtEn= 0.00D+00
 Coeff-Com: -0.368D-03 0.525D-03-0.442D-04 0.997D-04 0.719D-03 0.285D-03
 Coeff-Com: -0.468D-02-0.117D-01-0.137D-01 0.396D-01 0.322D+00 0.668D+00
 Coeff:     -0.368D-03 0.525D-03-0.442D-04 0.997D-04 0.719D-03 0.285D-03
 Coeff:     -0.468D-02-0.117D-01-0.137D-01 0.396D-01 0.322D+00 0.668D+00
 Gap=     0.158 Goal=   None    Shift=    0.000
 RMSDP=7.72D-07 MaxDP=5.46D-05 DE=-1.45D-07 OVMax= 8.97D-05

 Cycle  13  Pass 1  IDiag  1:
 RMSU=  3.96D-07    CP:  9.52D-01  1.91D+00  1.55D-01  4.31D-01  9.43D-01
                    CP:  8.00D-01  9.78D-01  1.04D+00  1.05D+00  8.46D-01
                    CP:  1.14D+00  1.05D+00
 E= -3186.71532415975     Delta-E=       -0.000000039206 Rises=F Damp=F
 DIIS: error= 2.59D-06 at cycle  13 NSaved=  13.
 NSaved=13 IEnMin=13 EnMin= -3186.71532415975     IErMin=13 ErrMin= 2.59D-06
 ErrMax= 2.59D-06  0.00D+00 EMaxC= 1.00D-01 BMatC= 3.80D-09 BMatP= 3.95D-08
 IDIUse=1 WtCom= 1.00D+00 WtEn= 0.00D+00
 Coeff-Com: -0.308D-03 0.378D-03 0.865D-06-0.927D-05 0.687D-03 0.169D-02
 Coeff-Com:  0.298D-02-0.852D-02-0.381D-01-0.543D-01 0.133D-01 0.333D+00
 Coeff-Com:  0.749D+00
 Coeff:     -0.308D-03 0.378D-03 0.865D-06-0.927D-05 0.687D-03 0.169D-02
 Coeff:      0.298D-02-0.852D-02-0.381D-01-0.543D-01 0.133D-01 0.333D+00
 Coeff:      0.749D+00
 Gap=     0.158 Goal=   None    Shift=    0.000
 RMSDP=4.23D-07 MaxDP=3.68D-05 DE=-3.92D-08 OVMax= 7.44D-05

 Cycle  14  Pass 1  IDiag  1:
 RMSU=  1.92D-07    CP:  9.52D-01  1.91D+00  1.54D-01  4.31D-01  9.43D-01
                    CP:  8.00D-01  9.79D-01  1.04D+00  1.05D+00  8.70D-01
                    CP:  1.26D+00  1.36D+00  1.20D+00
 E= -3186.71532417007     Delta-E=       -0.000000010317 Rises=F Damp=F
 DIIS: error= 1.31D-06 at cycle  14 NSaved=  14.
 NSaved=14 IEnMin=14 EnMin= -3186.71532417007     IErMin=14 ErrMin= 1.31D-06
 ErrMax= 1.31D-06  0.00D+00 EMaxC= 1.00D-01 BMatC= 7.44D-10 BMatP= 3.80D-09
 IDIUse=1 WtCom= 1.00D+00 WtEn= 0.00D+00
 Coeff-Com: -0.702D-04 0.725D-04 0.137D-04-0.338D-04 0.160D-03 0.771D-03
 Coeff-Com:  0.261D-02-0.158D-02-0.160D-01-0.375D-01-0.710D-01 0.548D-02
 Coeff-Com:  0.386D+00 0.731D+00
 Coeff:     -0.702D-04 0.725D-04 0.137D-04-0.338D-04 0.160D-03 0.771D-03
 Coeff:      0.261D-02-0.158D-02-0.160D-01-0.375D-01-0.710D-01 0.548D-02
 Coeff:      0.386D+00 0.731D+00
 Gap=     0.158 Goal=   None    Shift=    0.000
 RMSDP=2.59D-07 MaxDP=2.29D-05 DE=-1.03D-08 OVMax= 4.84D-05

 Cycle  15  Pass 1  IDiag  1:
 RMSU=  1.05D-07    CP:  9.52D-01  1.91D+00  1.54D-01  4.31D-01  9.43D-01
                    CP:  8.00D-01  9.79D-01  1.04D+00  1.05D+00  8.78D-01
                    CP:  1.35D+00  1.53D+00  1.52D+00  1.11D+00
 E= -3186.71532417343     Delta-E=       -0.000000003358 Rises=F Damp=F
 DIIS: error= 8.49D-07 at cycle  15 NSaved=  15.
 NSaved=15 IEnMin=15 EnMin= -3186.71532417343     IErMin=15 ErrMin= 8.49D-07
 ErrMax= 8.49D-07  0.00D+00 EMaxC= 1.00D-01 BMatC= 5.70D-10 BMatP= 7.44D-10
 IDIUse=1 WtCom= 1.00D+00 WtEn= 0.00D+00
 Coeff-Com:  0.551D-04-0.768D-04 0.113D-04-0.241D-04-0.127D-03-0.118D-03
 Coeff-Com:  0.506D-03 0.182D-02 0.334D-02-0.369D-02-0.446D-01-0.110D+00
 Coeff-Com: -0.473D-01 0.421D+00 0.779D+00
 Coeff:      0.551D-04-0.768D-04 0.113D-04-0.241D-04-0.127D-03-0.118D-03
 Coeff:      0.506D-03 0.182D-02 0.334D-02-0.369D-02-0.446D-01-0.110D+00
 Coeff:     -0.473D-01 0.421D+00 0.779D+00
 Gap=     0.158 Goal=   None    Shift=    0.000
 RMSDP=1.93D-07 MaxDP=1.63D-05 DE=-3.36D-09 OVMax= 3.66D-05

 Cycle  16  Pass 1  IDiag  1:
 RMSU=  5.54D-08    CP:  9.52D-01  1.91D+00  1.54D-01  4.31D-01  9.43D-01
                    CP:  8.00D-01  9.79D-01  1.04D+00  1.05D+00  8.84D-01
                    CP:  1.40D+00  1.67D+00  1.75D+00  1.48D+00  9.75D-01
 E= -3186.71532417498     Delta-E=       -0.000000001553 Rises=F Damp=F
 DIIS: error= 6.28D-07 at cycle  16 NSaved=  16.
 NSaved=16 IEnMin=16 EnMin= -3186.71532417498     IErMin=16 ErrMin= 6.28D-07
 ErrMax= 6.28D-07  0.00D+00 EMaxC= 1.00D-01 BMatC= 1.91D-10 BMatP= 5.70D-10
 IDIUse=1 WtCom= 1.00D+00 WtEn= 0.00D+00
 Coeff-Com:  0.277D-04-0.342D-04 0.361D-05-0.751D-05-0.754D-04-0.265D-03
 Coeff-Com: -0.532D-03 0.110D-02 0.580D-02 0.962D-02 0.133D-02-0.529D-01
 Coeff-Com: -0.155D+00-0.489D-01 0.391D+00 0.850D+00
 Coeff:      0.277D-04-0.342D-04 0.361D-05-0.751D-05-0.754D-04-0.265D-03
 Coeff:     -0.532D-03 0.110D-02 0.580D-02 0.962D-02 0.133D-02-0.529D-01
 Coeff:     -0.155D+00-0.489D-01 0.391D+00 0.850D+00
 Gap=     0.158 Goal=   None    Shift=    0.000
 RMSDP=1.15D-07 MaxDP=1.07D-05 DE=-1.55D-09 OVMax= 2.23D-05

 Cycle  17  Pass 1  IDiag  1:
 RMSU=  2.29D-08    CP:  9.52D-01  1.91D+00  1.54D-01  4.31D-01  9.43D-01
                    CP:  8.00D-01  9.79D-01  1.04D+00  1.05D+00  8.89D-01
                    CP:  1.44D+00  1.74D+00  1.89D+00  1.66D+00  1.27D+00
                    CP:  9.31D-01
 E= -3186.71532417540     Delta-E=       -0.000000000417 Rises=F Damp=F
 DIIS: error= 1.02D-07 at cycle  17 NSaved=  17.
 NSaved=17 IEnMin=17 EnMin= -3186.71532417540     IErMin=17 ErrMin= 1.02D-07
 ErrMax= 1.02D-07  0.00D+00 EMaxC= 1.00D-01 BMatC= 1.48D-11 BMatP= 1.91D-10
 IDIUse=1 WtCom= 1.00D+00 WtEn= 0.00D+00
 Coeff-Com:  0.634D-05-0.722D-05 0.582D-06-0.921D-06-0.180D-04-0.115D-03
 Coeff-Com: -0.317D-03 0.211D-03 0.206D-02 0.493D-02 0.638D-02-0.981D-02
 Coeff-Com: -0.685D-01-0.868D-01 0.701D-01 0.428D+00 0.654D+00
 Coeff:      0.634D-05-0.722D-05 0.582D-06-0.921D-06-0.180D-04-0.115D-03
 Coeff:     -0.317D-03 0.211D-03 0.206D-02 0.493D-02 0.638D-02-0.981D-02
 Coeff:     -0.685D-01-0.868D-01 0.701D-01 0.428D+00 0.654D+00
 Gap=     0.158 Goal=   None    Shift=    0.000
 RMSDP=2.92D-08 MaxDP=2.76D-06 DE=-4.17D-10 OVMax= 5.32D-06

 Cycle  18  Pass 1  IDiag  1:
 RMSU=  8.73D-09    CP:  9.52D-01  1.91D+00  1.54D-01  4.31D-01  9.43D-01
                    CP:  8.00D-01  9.79D-01  1.04D+00  1.05D+00  8.90D-01
                    CP:  1.44D+00  1.76D+00  1.92D+00  1.72D+00  1.31D+00
                    CP:  1.07D+00  8.91D-01
 E= -3186.71532417546     Delta-E=       -0.000000000067 Rises=F Damp=F
 DIIS: error= 2.89D-08 at cycle  18 NSaved=  18.
 NSaved=18 IEnMin=18 EnMin= -3186.71532417546     IErMin=18 ErrMin= 2.89D-08
 ErrMax= 2.89D-08  0.00D+00 EMaxC= 1.00D-01 BMatC= 1.48D-12 BMatP= 1.48D-11
 IDIUse=1 WtCom= 1.00D+00 WtEn= 0.00D+00
 Coeff-Com: -0.128D-06 0.597D-06 0.203D-07-0.179D-07-0.985D-06-0.329D-04
 Coeff-Com: -0.103D-03-0.176D-04 0.392D-03 0.143D-02 0.254D-02-0.344D-03
 Coeff-Com: -0.186D-01-0.369D-01-0.277D-02 0.134D+00 0.338D+00 0.583D+00
 Coeff:     -0.128D-06 0.597D-06 0.203D-07-0.179D-07-0.985D-06-0.329D-04
 Coeff:     -0.103D-03-0.176D-04 0.392D-03 0.143D-02 0.254D-02-0.344D-03
 Coeff:     -0.186D-01-0.369D-01-0.277D-02 0.134D+00 0.338D+00 0.583D+00
 Gap=     0.158 Goal=   None    Shift=    0.000
 RMSDP=6.18D-09 MaxDP=4.11D-07 DE=-6.73D-11 OVMax= 8.53D-07

 SCF Done:  E(RPBE1PBE) =  -3186.71532418     A.U. after   18 cycles
            NFock= 18  Conv=0.62D-08     -V/T= 2.0054
 KE= 3.169666580192D+03 PE=-1.773681420989D+04 EE= 6.262548731057D+03
 Leave Link  502 at Sat Aug 12 02:57:59 2023, MaxMem=  4026531840 cpu:            3907.6 elap:             123.9
 (Enter /sw/arch/Centos8/EB_production/2021/software/Gaussian/g16.c01/l508.exe)
 QCSCF skips out because SCF is already converged.
 Leave Link  508 at Sat Aug 12 02:57:59 2023, MaxMem=  4026531840 cpu:               0.3 elap:               0.0
 (Enter /sw/arch/Centos8/EB_production/2021/software/Gaussian/g16.c01/l801.exe)
 DoSCS=F DFT=T ScalE2(SS,OS)=  1.000000  1.000000
 Range of M.O.s used for correlation:     1   588
 NBasis=   588 NAE=   144 NBE=   144 NFC=     0 NFV=     0
 NROrb=    588 NOA=   144 NOB=   144 NVA=   444 NVB=   444

 **** Warning!!: The largest alpha MO coefficient is  0.10793093D+02

 Leave Link  801 at Sat Aug 12 02:57:59 2023, MaxMem=  4026531840 cpu:               0.4 elap:               0.0
 (Enter /sw/arch/Centos8/EB_production/2021/software/Gaussian/g16.c01/l1002.exe)
 Minotr:  Closed shell wavefunction.
          Direct CPHF calculation.
          Differentiating once with respect to magnetic field using GIAOs.
          Electric field/nuclear overlap derivatives assumed to be zero.
          Requested convergence is 1.0D-08 RMS, and 1.0D-07 maximum.
          Secondary convergence is 1.0D-12 RMS, and 1.0D-12 maximum.
          NewPWx=T KeepS1=F KeepF1=F KeepIn=T MapXYZ=F SortEE=F KeepMc=T.
        23079 words used for storage of precomputed grid.
 Two-electron integral symmetry not used.
          MDV=    4026531840 using IRadAn=       1.
          Solving linear equations simultaneously, MaxMat=      96.
 FoFCou: FMM=F IPFlag=           0 FMFlag=      100000 FMFlg1=        2001
         NFxFlg=           0 DoJE=F BraDBF=F KetDBF=T FulRan=T
         wScrn=  0.000000 ICntrl=      6100 IOpCl=  0 I1Cent=           7 NGrid=          75
         NMat0=    1 NMatS0=      1 NMatT0=    0 NMatD0=    1 NMtDS0=    0 NMtDT0=    0
 Symmetry not used in FoFCou.
   1 Symmetry operations used in ECPInt.
 ECPInt:  NShTT=   44551 NPrTT=  185758 LenC2=   44552 LenP2D=  185758.
 LDataN:  DoStor=T MaxTD1= 5 Len=  102
 FoFJK:  IHMeth= 1 ICntrl=    6127 DoSepK=F KAlg= 0 I1Cent=           0 FoldK=F
 IRaf=         1 NMat=       1 IRICut=       1 DoRegI=T DoRafI=F ISym2E= 0 IDoP0=0 IntGTp=1.
          There are     3 degrees of freedom in the 1st order CPHF.  IDoFFX=0 NUNeed=     3.
      3 vectors produced by pass  0 Test12= 2.13D-12 3.33D-08 XBig12= 1.39D+02 2.21D+00.
 AX will form     3 AO Fock derivatives at one time.
      3 vectors produced by pass  1 Test12= 2.13D-12 3.33D-08 XBig12= 1.48D+00 5.19D-01.
      3 vectors produced by pass  2 Test12= 2.13D-12 3.33D-08 XBig12= 7.76D-02 5.89D-02.
      3 vectors produced by pass  3 Test12= 2.13D-12 3.33D-08 XBig12= 7.30D-04 8.00D-03.
      3 vectors produced by pass  4 Test12= 2.13D-12 3.33D-08 XBig12= 3.40D-05 1.75D-03.
      3 vectors produced by pass  5 Test12= 2.13D-12 3.33D-08 XBig12= 3.70D-07 9.50D-05.
      3 vectors produced by pass  6 Test12= 2.13D-12 3.33D-08 XBig12= 2.05D-09 9.89D-06.
      3 vectors produced by pass  7 Test12= 2.13D-12 3.33D-08 XBig12= 6.73D-11 2.98D-06.
      3 vectors produced by pass  8 Test12= 2.13D-12 3.33D-08 XBig12= 8.53D-13 1.24D-07.
 InvSVY:  IOpt=1 It=  1 EMax= 5.33D-15
 Solved reduced A of dimension    27 with     3 vectors.
 Calculating GIAO nuclear magnetic shielding tensors.
 SCF GIAO Magnetic shielding tensor (ppm):
      1  C    Isotropic =   125.5018   Anisotropy =    83.2289
   XX=   108.9790   YX=   -37.6134   ZX=    40.3542
   XY=   -24.4995   YY=   108.9667   ZY=     1.2210
   XZ=    29.4066   YZ=    -7.1532   ZZ=   158.5596
   Eigenvalues:    71.2911   124.2265   180.9877
      2  C    Isotropic =   127.8031   Anisotropy =    80.2458
   XX=   103.4980   YX=    25.2914   ZX=    43.4038
   XY=    21.6979   YY=   114.4145   ZY=    -9.2341
   XZ=    25.3091   YZ=     0.7797   ZZ=   165.4969
   Eigenvalues:    74.6125   127.4965   181.3004
      3  C    Isotropic =   124.0300   Anisotropy =    82.9709
   XX=   150.8074   YX=    11.5773   ZX=    24.9740
   XY=     2.8768   YY=    75.7277   ZY=    15.9896
   XZ=    29.9139   YZ=    24.9845   ZZ=   145.5548
   Eigenvalues:    70.1600   122.5860   179.3439
      4  C    Isotropic =   121.9705   Anisotropy =    89.6262
   XX=   141.4736   YX=    -2.7104   ZX=    42.1767
   XY=    -7.4999   YY=   112.6734   ZY=     3.0663
   XZ=    63.6114   YZ=    -0.6526   ZZ=   111.7646
   Eigenvalues:    71.2824   112.9078   181.7213
      5  C    Isotropic =   115.2917   Anisotropy =    94.9863
   XX=   137.0834   YX=   -16.9672   ZX=    34.3354
   XY=    -6.4373   YY=    79.3385   ZY=   -21.0908
   XZ=    42.0658   YZ=   -30.7658   ZZ=   129.4533
   Eigenvalues:    67.9749    99.2843   178.6159
      6  H    Isotropic =    28.3435   Anisotropy =     5.0981
   XX=    30.2499   YX=     1.5435   ZX=    -2.0944
   XY=     1.2941   YY=    29.2688   ZY=    -1.4425
   XZ=    -0.8909   YZ=    -0.3357   ZZ=    25.5118
   Eigenvalues:    25.0247    28.2635    31.7422
      7  H    Isotropic =    28.4634   Anisotropy =     6.1669
   XX=    30.3811   YX=    -2.3231   ZX=    -2.7635
   XY=    -1.5335   YY=    28.2547   ZY=     1.2306
   XZ=    -1.8736   YZ=     0.6405   ZZ=    26.7542
   Eigenvalues:    25.6241    27.1913    32.5746
      8  H    Isotropic =    28.0057   Anisotropy =     3.7130
   XX=    28.2894   YX=     0.0557   ZX=     0.1975
   XY=     0.8386   YY=    30.1608   ZY=    -0.0662
   XZ=    -0.1266   YZ=    -2.0698   ZZ=    25.5668
   Eigenvalues:    25.3248    28.2112    30.4810
      9  H    Isotropic =    28.7102   Anisotropy =     1.9789
   XX=    28.5820   YX=     0.1056   ZX=    -0.7897
   XY=    -0.1427   YY=    29.3234   ZY=     0.1909
   XZ=    -2.4161   YZ=    -0.5193   ZZ=    28.2251
   Eigenvalues:    26.7836    29.3175    30.0295
     10  H    Isotropic =    28.5495   Anisotropy =     4.7162
   XX=    29.0582   YX=    -1.4903   ZX=     0.4340
   XY=    -2.2162   YY=    30.3882   ZY=    -0.5595
   XZ=    -0.2918   YZ=     0.8776   ZZ=    26.2021
   Eigenvalues:    26.1864    27.7685    31.6936
     11  Fe   Isotropic = -5300.1772   Anisotropy =  9442.3552
   XX= -4978.9820   YX=   -55.1762   ZX=  4443.1946
   XY=   -28.0760   YY= -8573.4776   ZY=    82.7222
   XZ=  4494.0617   YZ=    20.7387   ZZ= -2348.0722
   Eigenvalues: -8588.9863 -8306.2716   994.7262
     12  C    Isotropic =   123.5806   Anisotropy =    77.0792
   XX=   137.8797   YX=    -4.6157   ZX=    22.8366
   XY=    -0.3240   YY=    73.4364   ZY=   -10.9364
   XZ=    16.3285   YZ=   -32.3778   ZZ=   159.4258
   Eigenvalues:    68.2212   127.5540   174.9668
     13  C    Isotropic =   104.4119   Anisotropy =    83.8160
   XX=    76.6856   YX=    -9.2354   ZX=    41.4497
   XY=   -12.8422   YY=    86.1646   ZY=     9.8717
   XZ=    16.0841   YZ=    -3.5256   ZZ=   150.3856
   Eigenvalues:    61.4601    91.4865   160.2893
     14  C    Isotropic =   115.6642   Anisotropy =    91.6012
   XX=    94.8827   YX=    26.7150   ZX=    26.0412
   XY=    19.2311   YY=   100.4135   ZY=    22.6385
   XZ=    18.8597   YZ=    37.3939   ZZ=   151.6964
   Eigenvalues:    74.3039    95.9571   176.7317
     15  C    Isotropic =   114.0618   Anisotropy =    85.0080
   XX=   126.1317   YX=    -4.0359   ZX=    33.2370
   XY=   -11.0533   YY=    88.1713   ZY=    32.2272
   XZ=    35.5119   YZ=    52.3344   ZZ=   127.8823
   Eigenvalues:    52.2458   119.2058   170.7338
     16  C    Isotropic =   124.8369   Anisotropy =    80.2780
   XX=   130.3982   YX=     9.5624   ZX=    44.5926
   XY=    11.6931   YY=   125.0158   ZY=    -8.6567
   XZ=    61.5122   YZ=    -4.0754   ZZ=   119.0968
   Eigenvalues:    68.8919   127.2633   178.3556
     17  H    Isotropic =    27.8679   Anisotropy =     3.7543
   XX=    29.0179   YX=    -0.1197   ZX=    -2.0886
   XY=    -1.1166   YY=    28.8033   ZY=    -0.8976
   XZ=    -2.7799   YZ=    -0.2928   ZZ=    25.7825
   Eigenvalues:    24.3280    28.9049    30.3707
     18  H    Isotropic =    28.0706   Anisotropy =     3.9979
   XX=    29.4656   YX=    -1.7816   ZX=    -1.0475
   XY=    -0.2710   YY=    29.6024   ZY=     0.0178
   XZ=    -2.5818   YZ=    -1.0391   ZZ=    25.1438
   Eigenvalues:    24.3488    29.1272    30.7359
     19  H    Isotropic =    28.1888   Anisotropy =     6.9530
   XX=    30.6815   YX=    -1.4831   ZX=    -2.5998
   XY=    -1.1336   YY=    27.2043   ZY=    -0.0098
   XZ=    -3.9466   YZ=     0.7074   ZZ=    26.6806
   Eigenvalues:    24.7934    26.9488    32.8241
     20  C    Isotropic =   161.3158   Anisotropy =    14.2721
   XX=   170.4899   YX=     6.6602   ZX=    -3.0551
   XY=    -4.3793   YY=   148.3468   ZY=    -3.2812
   XZ=     1.1535   YZ=    -5.4828   ZZ=   165.1106
   Eigenvalues:   147.2370   165.8798   170.8305
     21  H    Isotropic =    27.7407   Anisotropy =     6.0838
   XX=    26.0022   YX=     3.2289   ZX=    -0.6525
   XY=     1.8357   YY=    27.4206   ZY=     1.8589
   XZ=     0.9924   YZ=     3.0968   ZZ=    29.7994
   Eigenvalues:    23.7316    27.6939    31.7966
     22  P    Isotropic =   407.1181   Anisotropy =    78.6523
   XX=   381.5797   YX=     3.5230   ZX=    13.4477
   XY=     0.9354   YY=   384.7839   ZY=    -1.5566
   XZ=    22.9884   YZ=    -9.0428   ZZ=   454.9907
   Eigenvalues:   375.9713   385.8301   459.5530
     23  C    Isotropic =   174.9264   Anisotropy =     7.3639
   XX=   175.4659   YX=    -3.3497   ZX=    -0.2449
   XY=     3.4729   YY=   179.7769   ZY=     1.7603
   XZ=     2.8576   YZ=    -0.2820   ZZ=   169.5365
   Eigenvalues:   169.2136   175.7300   179.8357
     24  H    Isotropic =    30.0896   Anisotropy =     9.9722
   XX=    34.3672   YX=     2.0103   ZX=    -3.8078
   XY=    -2.4723   YY=    27.8911   ZY=    -4.7645
   XZ=    -4.2675   YZ=    -4.1028   ZZ=    28.0105
   Eigenvalues:    22.6922    30.8389    36.7377
     25  H    Isotropic =    29.9169   Anisotropy =     8.4491
   XX=    33.9050   YX=     0.3169   ZX=     2.3793
   XY=    -2.7123   YY=    28.8977   ZY=    -2.1385
   XZ=     3.4321   YZ=    -2.5833   ZZ=    26.9479
   Eigenvalues:    24.9710    29.2300    35.5497
     26  H    Isotropic =    30.4435   Anisotropy =     7.4196
   XX=    28.1903   YX=     0.9870   ZX=    -1.0903
   XY=    -3.0231   YY=    32.9419   ZY=     3.3746
   XZ=     1.0734   YZ=     3.5401   ZZ=    30.1984
   Eigenvalues:    27.3965    28.5441    35.3899
     27  P    Isotropic =   411.4287   Anisotropy =    62.7697
   XX=   385.9360   YX=   -13.2998   ZX=     6.0638
   XY=    -5.3274   YY=   408.3424   ZY=   -41.4244
   XZ=    -7.7190   YZ=    -6.9131   ZZ=   440.0078
   Eigenvalues:   380.6926   400.3184   453.2752
     28  C    Isotropic =    60.0470   Anisotropy =   189.8008
   XX=    72.4371   YX=    76.7634   ZX=   -33.1471
   XY=    67.8106   YY=   122.7895   ZY=   -44.6583
   XZ=   -25.9498   YZ=   -36.1473   ZZ=   -15.0855
   Eigenvalues:   -27.5162    21.0764   186.5809
     29  C    Isotropic =    66.3608   Anisotropy =   179.5054
   XX=    88.3714   YX=    62.2675   ZX=   -31.3344
   XY=    59.5630   YY=   128.4302   ZY=   -44.7855
   XZ=   -27.1891   YZ=   -42.3653   ZZ=   -17.7190
   Eigenvalues:   -31.2666    44.3180   186.0311
     30  C    Isotropic =    66.3882   Anisotropy =   178.2064
   XX=    47.8462   YX=    87.6473   ZX=   -49.0154
   XY=    90.7295   YY=   114.3778   ZY=    -8.8629
   XZ=   -50.8232   YZ=    -8.2370   ZZ=    36.9406
   Eigenvalues:   -34.1326    48.1047   185.1924
     31  C    Isotropic =    57.2156   Anisotropy =   180.6102
   XX=    63.1520   YX=    93.7613   ZX=    18.2032
   XY=   107.8873   YY=    78.1209   ZY=   -44.3117
   XZ=    -2.5412   YZ=   -48.7123   ZZ=    30.3738
   Eigenvalues:   -48.9580    42.9823   177.6224
     32  C    Isotropic =    59.8904   Anisotropy =   181.2969
   XX=    41.4861   YX=    86.8026   ZX=   -47.9935
   XY=   100.0831   YY=   107.2619   ZY=    -4.9607
   XZ=   -46.9760   YZ=    -7.2921   ZZ=    30.9231
   Eigenvalues:   -42.7161    41.6322   180.7550
     33  C    Isotropic =    65.8736   Anisotropy =   177.9651
   XX=    61.0885   YX=    92.9375   ZX=     6.5368
   XY=    98.7187   YY=    97.4327   ZY=   -47.0884
   XZ=     5.6857   YZ=   -48.2088   ZZ=    39.0997
   Eigenvalues:   -35.8914    48.9952   184.5170
     34  H    Isotropic =    24.9044   Anisotropy =     3.2033
   XX=    25.3356   YX=    -1.9409   ZX=     1.2730
   XY=    -2.1642   YY=    23.7978   ZY=     1.3454
   XZ=     1.7140   YZ=     1.5688   ZZ=    25.5799
   Eigenvalues:    21.3710    26.3023    27.0399
     35  H    Isotropic =    24.7141   Anisotropy =     5.1312
   XX=    24.4817   YX=    -0.7669   ZX=     1.3361
   XY=    -0.6814   YY=    22.7462   ZY=     2.1459
   XZ=     1.4353   YZ=     2.2215   ZZ=    26.9145
   Eigenvalues:    21.3241    24.6833    28.1349
     36  H    Isotropic =    24.4370   Anisotropy =     8.3578
   XX=    24.5628   YX=     0.1667   ZX=     3.7773
   XY=    -0.4110   YY=    22.7240   ZY=    -2.3504
   XZ=     4.8534   YZ=    -1.5133   ZZ=    26.0244
   Eigenvalues:    20.3020    23.0003    30.0089
     37  H    Isotropic =    24.3767   Anisotropy =    11.3946
   XX=    22.6316   YX=     1.6118   ZX=     1.3220
   XY=    -1.0266   YY=    22.4675   ZY=     5.0980
   XZ=     2.0374   YZ=     6.5556   ZZ=    28.0311
   Eigenvalues:    18.6806    22.4764    31.9731
     38  H    Isotropic =    24.9703   Anisotropy =     7.1069
   XX=    23.9154   YX=    -0.5818   ZX=     2.3860
   XY=    -0.8177   YY=    22.8231   ZY=     1.6842
   XZ=     2.6457   YZ=     2.3957   ZZ=    28.1724
   Eigenvalues:    21.1408    24.0618    29.7083
     39  C    Isotropic =    51.5713   Anisotropy =   192.4807
   XX=    70.6879   YX=   -97.2814   ZX=    -9.3014
   XY=   -99.8593   YY=    88.8094   ZY=    15.6274
   XZ=     0.9449   YZ=    16.2927   ZZ=    -4.7834
   Eigenvalues:   -22.7223    -2.4556   179.8917
     40  C    Isotropic =    70.1776   Anisotropy =   170.4626
   XX=    87.9487   YX=   -93.4060   ZX=    10.1377
   XY=   -94.9956   YY=    87.6292   ZY=    34.7129
   XZ=    13.6983   YZ=    34.9696   ZZ=    34.9551
   Eigenvalues:   -25.0412    51.7547   183.8194
     41  C    Isotropic =    66.3782   Anisotropy =   174.1518
   XX=    78.8350   YX=   -96.0374   ZX=   -34.2525
   XY=   -98.2136   YY=    89.4957   ZY=   -19.7100
   XZ=   -36.1566   YZ=   -13.1141   ZZ=    30.8040
   Eigenvalues:   -34.2167    50.8720   182.4794
     42  C    Isotropic =    65.7046   Anisotropy =   174.8079
   XX=   110.9086   YX=   -65.6913   ZX=   -13.2096
   XY=   -65.9482   YY=   119.7389   ZY=    -2.3807
   XZ=   -17.5256   YZ=    12.8409   ZZ=   -33.5336
   Eigenvalues:   -35.1732    50.0438   182.2432
     43  C    Isotropic =    65.8589   Anisotropy =   171.9089
   XX=    78.0728   YX=   -95.7065   ZX=   -27.7449
   XY=   -91.9879   YY=    92.0542   ZY=   -13.0084
   XZ=   -45.9554   YZ=   -17.9498   ZZ=    27.4499
   Eigenvalues:   -32.7873    49.8993   180.4649
     44  C    Isotropic =    67.2653   Anisotropy =   173.2315
   XX=   114.1980   YX=   -63.6628   ZX=   -17.4044
   XY=   -63.4956   YY=   118.7049   ZY=    16.7440
   XZ=   -18.3466   YZ=    15.3207   ZZ=   -31.1070
   Eigenvalues:   -33.8231    52.8660   182.7529
     45  H    Isotropic =    25.1047   Anisotropy =     3.2973
   XX=    24.5117   YX=     2.7279   ZX=     0.3758
   XY=     2.7363   YY=    23.7886   ZY=    -0.3497
   XZ=     0.7253   YZ=     0.0508   ZZ=    27.0137
   Eigenvalues:    21.3542    26.6570    27.3029
     46  H    Isotropic =    25.0891   Anisotropy =     6.6193
   XX=    24.7496   YX=     3.3366   ZX=    -1.3566
   XY=     3.2092   YY=    23.8420   ZY=    -2.4761
   XZ=    -0.9924   YZ=    -1.7841   ZZ=    26.6758
   Eigenvalues:    20.8535    24.9119    29.5020
     47  H    Isotropic =    25.5035   Anisotropy =    14.7106
   XX=    27.7359   YX=     6.7582   ZX=    -3.6623
   XY=     7.8222   YY=    24.9278   ZY=    -5.1950
   XZ=    -1.1896   YZ=    -2.1311   ZZ=    23.8469
   Eigenvalues:    18.5151    22.6849    35.3106
     48  H    Isotropic =    24.6984   Anisotropy =    11.2497
   XX=    23.4375   YX=     2.7828   ZX=    -5.2035
   XY=     2.2542   YY=    22.2893   ZY=    -2.2798
   XZ=    -3.9817   YZ=    -2.3082   ZZ=    28.3685
   Eigenvalues:    19.9772    21.9199    32.1983
     49  H    Isotropic =    24.7336   Anisotropy =     6.1571
   XX=    25.0093   YX=     3.6479   ZX=    -1.0823
   XY=     3.6749   YY=    24.2884   ZY=    -1.0873
   XZ=    -0.9283   YZ=    -0.9145   ZZ=    24.9031
   Eigenvalues:    20.9685    24.3940    28.8383
     50  C    Isotropic =   161.4608   Anisotropy =    12.3137
   XX=   154.8940   YX=     2.6109   ZX=     6.3844
   XY=     0.9142   YY=   164.1398   ZY=     4.7064
   XZ=     3.5745   YZ=     1.6053   ZZ=   165.3488
   Eigenvalues:   152.8811   161.8314   169.6700
     51  C    Isotropic =   163.3037   Anisotropy =    24.9924
   XX=   177.3331   YX=     3.7268   ZX=    -6.2910
   XY=     8.2119   YY=   154.4800   ZY=     1.4798
   XZ=    -4.1073   YZ=    -1.4414   ZZ=   158.0981
   Eigenvalues:   152.6602   157.2857   179.9653
     52  H    Isotropic =    30.1998   Anisotropy =     6.0413
   XX=    29.5870   YX=     2.8739   ZX=    -1.5108
   XY=     2.8079   YY=    28.8301   ZY=    -1.7199
   XZ=    -0.6730   YZ=    -2.0581   ZZ=    32.1822
   Eigenvalues:    26.2478    30.1242    34.2273
     53  H    Isotropic =    28.3949   Anisotropy =     8.4895
   XX=    30.5708   YX=    -4.7026   ZX=     0.4067
   XY=    -2.5268   YY=    30.2796   ZY=     0.5254
   XZ=     0.9040   YZ=    -0.1354   ZZ=    24.3343
   Eigenvalues:    24.1878    26.9423    34.0546
     54  H    Isotropic =    30.8312   Anisotropy =     9.1192
   XX=    31.8246   YX=     4.0702   ZX=     2.6029
   XY=     3.3664   YY=    31.6871   ZY=     2.8021
   XZ=     1.7170   YZ=     2.4218   ZZ=    28.9818
   Eigenvalues:    27.3872    28.1957    36.9106
     55  C    Isotropic =   158.7299   Anisotropy =    33.3268
   XX=   145.2668   YX=    10.0791   ZX=     2.8740
   XY=     9.0873   YY=   151.3071   ZY=    -6.5886
   XZ=     0.3670   YZ=    -5.9542   ZZ=   179.6158
   Eigenvalues:   137.6283   157.6137   180.9478
     56  H    Isotropic =    29.0440   Anisotropy =     8.0807
   XX=    26.9784   YX=    -3.0089   ZX=     1.2267
   XY=    -3.4683   YY=    32.0427   ZY=    -1.6332
   XZ=     0.7665   YZ=    -2.4280   ZZ=    28.1107
   Eigenvalues:    25.3996    27.3012    34.4311
     57  H    Isotropic =    30.1394   Anisotropy =     7.7833
   XX=    30.7372   YX=     1.0004   ZX=    -3.2525
   XY=     2.3850   YY=    28.5187   ZY=    -0.5122
   XZ=    -4.7688   YZ=    -0.5786   ZZ=    31.1623
   Eigenvalues:    26.5106    28.5793    35.3283
     58  H    Isotropic =    30.9262   Anisotropy =     8.8702
   XX=    27.8789   YX=     0.9275   ZX=     1.3940
   XY=     0.7140   YY=    29.6617   ZY=     2.2144
   XZ=     1.3566   YZ=     3.8191   ZZ=    35.2381
   Eigenvalues:    27.5480    28.3911    36.8397
     59  C    Isotropic =   161.8761   Anisotropy =    32.6651
   XX=   160.1017   YX=   -12.5167   ZX=     1.2386
   XY=   -16.7282   YY=   174.3601   ZY=    -3.2785
   XZ=    -0.0752   YZ=    -1.2704   ZZ=   151.1665
   Eigenvalues:   150.2769   151.6986   183.6528
     60  H    Isotropic =    30.4439   Anisotropy =     8.0270
   XX=    34.1143   YX=    -2.4411   ZX=    -0.3865
   XY=    -3.5916   YY=    29.7336   ZY=     2.2645
   XZ=    -0.2745   YZ=     1.1762   ZZ=    27.4838
   Eigenvalues:    26.3334    29.2032    35.7952
     61  H    Isotropic =    30.4349   Anisotropy =     7.2987
   XX=    25.9244   YX=    -2.0869   ZX=     0.4743
   XY=    -1.0283   YY=    33.7416   ZY=    -2.3206
   XZ=     0.1342   YZ=    -1.9368   ZZ=    31.6386
   Eigenvalues:    25.6236    30.3804    35.3006
     62  H    Isotropic =    30.5846   Anisotropy =    10.3076
   XX=    26.8720   YX=    -1.5638   ZX=    -0.0873
   XY=    -0.7481   YY=    35.0624   ZY=     4.7500
   XZ=     0.3112   YZ=     3.5967   ZZ=    29.8193
   Eigenvalues:    26.4001    27.8974    37.4563
     63  C    Isotropic =   160.3042   Anisotropy =    21.2917
   XX=   151.4684   YX=    -2.2054   ZX=     3.2848
   XY=    -4.8573   YY=   158.8759   ZY=    -4.9280
   XZ=     6.7179   YZ=    -6.6369   ZZ=   170.5684
   Eigenvalues:   149.6656   156.7484   174.4986
     64  C    Isotropic =   160.6314   Anisotropy =    28.0212
   XX=   164.6754   YX=    13.2307   ZX=     0.3507
   XY=    15.3955   YY=   162.6089   ZY=    -3.5957
   XZ=    -4.8053   YZ=    -8.2892   ZZ=   154.6098
   Eigenvalues:   147.8746   154.7074   179.3122
     65  H    Isotropic =    30.5688   Anisotropy =     4.9223
   XX=    33.6808   YX=    -1.1987   ZX=     0.2596
   XY=     1.2910   YY=    28.8819   ZY=    -2.3132
   XZ=    -1.5982   YZ=    -3.7204   ZZ=    29.1438
   Eigenvalues:    25.9691    31.8870    33.8504
     66  H    Isotropic =    30.4192   Anisotropy =     6.8431
   XX=    26.3154   YX=     2.6746   ZX=     0.5534
   XY=     2.2877   YY=    34.2492   ZY=     1.4416
   XZ=    -0.0346   YZ=    -0.9818   ZZ=    30.6930
   Eigenvalues:    25.5965    30.6798    34.9812
     67  H    Isotropic =    31.3096   Anisotropy =    10.3861
   XX=    28.1868   YX=     1.5128   ZX=    -1.0336
   XY=     1.6810   YY=    30.6131   ZY=    -4.4081
   XZ=    -0.6742   YZ=    -4.7729   ZZ=    35.1290
   Eigenvalues:    26.9492    28.7460    38.2337
     68  C    Isotropic =   157.6473   Anisotropy =    37.4764
   XX=   174.7147   YX=   -13.2058   ZX=     1.8854
   XY=   -15.6088   YY=   148.9377   ZY=    -7.8583
   XZ=     6.7184   YZ=    -6.9317   ZZ=   149.2894
   Eigenvalues:   139.5779   150.7324   182.6316
     69  H    Isotropic =    30.5759   Anisotropy =     7.5056
   XX=    29.9640   YX=    -4.4422   ZX=     0.9894
   XY=    -3.3591   YY=    32.6857   ZY=     2.7527
   XZ=     1.9765   YZ=     1.4311   ZZ=    29.0779
   Eigenvalues:    25.5153    30.6326    35.5796
     70  H    Isotropic =    30.4728   Anisotropy =     6.7762
   XX=    34.5358   YX=     2.6482   ZX=     0.4264
   XY=     0.0398   YY=    30.5327   ZY=    -0.3307
   XZ=     1.5245   YZ=    -1.8859   ZZ=    26.3498
   Eigenvalues:    25.8825    30.5456    34.9902
     71  H    Isotropic =    31.3785   Anisotropy =    10.1891
   XX=    30.4399   YX=    -1.9735   ZX=     4.3325
   XY=    -2.4156   YY=    30.7067   ZY=    -3.4383
   XZ=     3.7335   YZ=    -3.4509   ZZ=    32.9889
   Eigenvalues:    27.4314    28.5328    38.1712
     72  C    Isotropic =   161.7966   Anisotropy =    28.0137
   XX=   147.2697   YX=    -2.0071   ZX=     8.8334
   XY=    -1.2109   YY=   173.8663   ZY=    10.9444
   XZ=     4.6462   YZ=     9.4011   ZZ=   164.2539
   Eigenvalues:   144.0158   160.9016   180.4725
     73  H    Isotropic =    33.0280   Anisotropy =    20.4361
   XX=    31.4615   YX=     9.8016   ZX=     2.8652
   XY=     9.7771   YY=    40.3282   ZY=     0.4217
   XZ=     2.9371   YZ=    -3.0880   ZZ=    27.2944
   Eigenvalues:    22.8807    29.5513    46.6521
     74  H    Isotropic =    32.5609   Anisotropy =     7.5274
   XX=    33.0241   YX=    -3.6712   ZX=     4.5244
   XY=    -2.1002   YY=    30.8262   ZY=     0.8733
   XZ=     2.0170   YZ=    -1.9779   ZZ=    33.8324
   Eigenvalues:    28.3600    31.7436    37.5792
     75  H    Isotropic =    32.6334   Anisotropy =     8.1304
   XX=    28.7360   YX=     1.4949   ZX=     1.9947
   XY=     1.5381   YY=    31.5911   ZY=     0.5563
   XZ=     2.2370   YZ=    -1.2015   ZZ=    37.5732
   Eigenvalues:    27.6463    32.2003    38.0537
 End of Minotr F.D. properties file   721 does not exist.
 End of Minotr F.D. properties file   722 does not exist.
 End of Minotr F.D. properties file   788 does not exist.
 Leave Link 1002 at Sat Aug 12 02:59:49 2023, MaxMem=  4026531840 cpu:            3159.5 elap:             109.5
 (Enter /sw/arch/Centos8/EB_production/2021/software/Gaussian/g16.c01/l601.exe)
 Copying SCF densities to generalized density rwf, IOpCl= 0 IROHF=0.

 **********************************************************************

            Population analysis using the SCF Density.

 **********************************************************************

 Alpha  occ. eigenvalues -- -256.35397 -77.18373 -77.17408 -30.12831 -25.97701
 Alpha  occ. eigenvalues --  -25.95817 -25.95737 -10.25654 -10.25151 -10.24575
 Alpha  occ. eigenvalues --  -10.24551 -10.24538 -10.24447 -10.24398 -10.24382
 Alpha  occ. eigenvalues --  -10.24361 -10.24345 -10.24316 -10.24271 -10.24263
 Alpha  occ. eigenvalues --  -10.24057 -10.24036 -10.24032 -10.23981 -10.23958
 Alpha  occ. eigenvalues --  -10.23940 -10.23896 -10.23411 -10.23292 -10.23090
 Alpha  occ. eigenvalues --  -10.22933 -10.22874 -10.22166 -10.21543 -10.21299
 Alpha  occ. eigenvalues --  -10.21251 -10.21034 -10.20794 -10.20167  -6.59425
 Alpha  occ. eigenvalues --   -6.58310  -4.73484  -4.73459  -4.72922  -4.72387
 Alpha  occ. eigenvalues --   -4.72318  -4.71818  -3.45977  -2.24946  -2.20260
 Alpha  occ. eigenvalues --   -2.20119  -0.92262  -0.90514  -0.87927  -0.86921
 Alpha  occ. eigenvalues --   -0.83281  -0.81556  -0.81467  -0.77421  -0.76450
 Alpha  occ. eigenvalues --   -0.75818  -0.75466  -0.73811  -0.73325  -0.73247
 Alpha  occ. eigenvalues --   -0.71839  -0.69634  -0.69393  -0.68593  -0.68361
 Alpha  occ. eigenvalues --   -0.66884  -0.63848  -0.62753  -0.62089  -0.61506
 Alpha  occ. eigenvalues --   -0.60860  -0.57166  -0.56727  -0.56252  -0.55831
 Alpha  occ. eigenvalues --   -0.55518  -0.54898  -0.54094  -0.53795  -0.52049
 Alpha  occ. eigenvalues --   -0.50543  -0.49972  -0.47839  -0.47216  -0.46759
 Alpha  occ. eigenvalues --   -0.46344  -0.45809  -0.45520  -0.45176  -0.44694
 Alpha  occ. eigenvalues --   -0.44591  -0.43850  -0.43789  -0.43550  -0.43271
 Alpha  occ. eigenvalues --   -0.42942  -0.42725  -0.42592  -0.42263  -0.41725
 Alpha  occ. eigenvalues --   -0.41489  -0.40645  -0.39925  -0.39857  -0.39760
 Alpha  occ. eigenvalues --   -0.39505  -0.39066  -0.38755  -0.38497  -0.38223
 Alpha  occ. eigenvalues --   -0.38157  -0.37794  -0.37256  -0.37049  -0.36809
 Alpha  occ. eigenvalues --   -0.36245  -0.35904  -0.35325  -0.34837  -0.34178
 Alpha  occ. eigenvalues --   -0.33659  -0.33376  -0.33068  -0.32874  -0.32244
 Alpha  occ. eigenvalues --   -0.29470  -0.28745  -0.28518  -0.27902  -0.27108
 Alpha  occ. eigenvalues --   -0.26526  -0.26361  -0.26156  -0.25783  -0.24740
 Alpha  occ. eigenvalues --   -0.22779  -0.21941  -0.21883  -0.17895
 Alpha virt. eigenvalues --   -0.02108  -0.01368  -0.00797  -0.00308   0.00002
 Alpha virt. eigenvalues --    0.00404   0.03133   0.03993   0.05643   0.06090
 Alpha virt. eigenvalues --    0.06295   0.06536   0.06830   0.07097   0.07377
 Alpha virt. eigenvalues --    0.08561   0.09163   0.09242   0.09476   0.09834
 Alpha virt. eigenvalues --    0.10121   0.10966   0.11088   0.11377   0.11718
 Alpha virt. eigenvalues --    0.12241   0.12407   0.12581   0.12935   0.13483
 Alpha virt. eigenvalues --    0.13901   0.13997   0.14390   0.14906   0.15158
 Alpha virt. eigenvalues --    0.15265   0.15472   0.15689   0.15911   0.16029
 Alpha virt. eigenvalues --    0.16508   0.16676   0.17114   0.17197   0.17363
 Alpha virt. eigenvalues --    0.17811   0.18109   0.18741   0.19176   0.19351
 Alpha virt. eigenvalues --    0.19726   0.20176   0.20531   0.20842   0.21366
 Alpha virt. eigenvalues --    0.21765   0.22157   0.22420   0.22975   0.23348
 Alpha virt. eigenvalues --    0.23690   0.23843   0.23899   0.24325   0.25364
 Alpha virt. eigenvalues --    0.26085   0.26275   0.27157   0.27486   0.27916
 Alpha virt. eigenvalues --    0.28060   0.29110   0.29903   0.30064   0.30443
 Alpha virt. eigenvalues --    0.30745   0.31241   0.31541   0.32439   0.33031
 Alpha virt. eigenvalues --    0.33392   0.34277   0.34809   0.35316   0.36130
 Alpha virt. eigenvalues --    0.36476   0.36815   0.37624   0.39362   0.40001
 Alpha virt. eigenvalues --    0.40229   0.41169   0.41757   0.41828   0.42614
 Alpha virt. eigenvalues --    0.42944   0.43441   0.43684   0.44439   0.44673
 Alpha virt. eigenvalues --    0.44881   0.45228   0.45949   0.46158   0.46732
 Alpha virt. eigenvalues --    0.47040   0.47234   0.48092   0.48588   0.48756
 Alpha virt. eigenvalues --    0.48911   0.49318   0.50081   0.50287   0.50508
 Alpha virt. eigenvalues --    0.50864   0.51485   0.51880   0.52036   0.52682
 Alpha virt. eigenvalues --    0.52953   0.53528   0.53671   0.54198   0.54456
 Alpha virt. eigenvalues --    0.55781   0.56221   0.56614   0.56710   0.57322
 Alpha virt. eigenvalues --    0.58159   0.58658   0.59027   0.59509   0.60126
 Alpha virt. eigenvalues --    0.60439   0.60667   0.62274   0.62344   0.62912
 Alpha virt. eigenvalues --    0.63500   0.63694   0.64276   0.64314   0.64677
 Alpha virt. eigenvalues --    0.65269   0.65782   0.66287   0.66587   0.66899
 Alpha virt. eigenvalues --    0.67171   0.67610   0.67956   0.68461   0.68809
 Alpha virt. eigenvalues --    0.68962   0.69251   0.69431   0.69581   0.70013
 Alpha virt. eigenvalues --    0.70103   0.70518   0.70713   0.70897   0.71050
 Alpha virt. eigenvalues --    0.71244   0.71838   0.72032   0.72330   0.72585
 Alpha virt. eigenvalues --    0.72751   0.72826   0.73094   0.73192   0.73498
 Alpha virt. eigenvalues --    0.74044   0.74144   0.74568   0.74748   0.74940
 Alpha virt. eigenvalues --    0.75076   0.75300   0.75665   0.75898   0.76138
 Alpha virt. eigenvalues --    0.76217   0.76490   0.76860   0.76961   0.77226
 Alpha virt. eigenvalues --    0.77750   0.77880   0.77982   0.78448   0.78819
 Alpha virt. eigenvalues --    0.78925   0.79493   0.79571   0.79866   0.80689
 Alpha virt. eigenvalues --    0.80748   0.81087   0.81366   0.82167   0.82502
 Alpha virt. eigenvalues --    0.82694   0.83281   0.83371   0.83521   0.84059
 Alpha virt. eigenvalues --    0.84707   0.84991   0.85319   0.85745   0.86442
 Alpha virt. eigenvalues --    0.86626   0.87075   0.87661   0.88224   0.88347
 Alpha virt. eigenvalues --    0.89103   0.89738   0.90609   0.90753   0.91331
 Alpha virt. eigenvalues --    0.92462   0.92732   0.93723   0.93971   0.94852
 Alpha virt. eigenvalues --    0.96176   0.96705   0.96883   0.97611   0.98261
 Alpha virt. eigenvalues --    0.98918   0.99619   1.00138   1.00887   1.01553
 Alpha virt. eigenvalues --    1.02335   1.03486   1.04287   1.04551   1.05390
 Alpha virt. eigenvalues --    1.06920   1.08370   1.08543   1.10052   1.10683
 Alpha virt. eigenvalues --    1.11467   1.12502   1.13667   1.14605   1.15462
 Alpha virt. eigenvalues --    1.16117   1.16505   1.18267   1.18382   1.19948
 Alpha virt. eigenvalues --    1.21580   1.21809   1.22428   1.23252   1.24071
 Alpha virt. eigenvalues --    1.24993   1.25707   1.26686   1.27392   1.28025
 Alpha virt. eigenvalues --    1.28962   1.29277   1.29821   1.30643   1.31296
 Alpha virt. eigenvalues --    1.32106   1.32609   1.33746   1.34475   1.35828
 Alpha virt. eigenvalues --    1.36312   1.38998   1.39300   1.41214   1.42470
 Alpha virt. eigenvalues --    1.45184   1.46162   1.46954   1.48255   1.48420
 Alpha virt. eigenvalues --    1.48994   1.49410   1.49752   1.49973   1.51358
 Alpha virt. eigenvalues --    1.51620   1.52049   1.55744   1.56690   1.57941
 Alpha virt. eigenvalues --    1.60124   1.60669   1.63538   1.65383   1.66202
 Alpha virt. eigenvalues --    1.69165   1.70967   1.72091   1.74586   1.75404
 Alpha virt. eigenvalues --    1.76072   1.77071   1.78697   1.79166   1.79418
 Alpha virt. eigenvalues --    1.80460   1.82199   1.82989   1.84071   1.85391
 Alpha virt. eigenvalues --    1.86031   1.86871   1.88736   1.88906   1.89643
 Alpha virt. eigenvalues --    1.89739   1.90310   1.90720   1.91337   1.92586
 Alpha virt. eigenvalues --    1.92941   1.93602   1.93810   1.94021   1.94569
 Alpha virt. eigenvalues --    1.95319   1.96211   1.97108   1.97821   1.98347
 Alpha virt. eigenvalues --    1.98555   1.99565   1.99944   2.01089   2.02098
 Alpha virt. eigenvalues --    2.03001   2.04042   2.04859   2.05069   2.05698
 Alpha virt. eigenvalues --    2.06364   2.07205   2.08020   2.08453   2.08818
 Alpha virt. eigenvalues --    2.09527   2.09757   2.10056   2.10529   2.10791
 Alpha virt. eigenvalues --    2.12475   2.14054   2.14236   2.14880   2.15718
 Alpha virt. eigenvalues --    2.16164   2.16688   2.17340   2.18157   2.18894
 Alpha virt. eigenvalues --    2.19805   2.20187   2.20692   2.21584   2.21976
 Alpha virt. eigenvalues --    2.22744   2.22884   2.24397   2.24470   2.25547
 Alpha virt. eigenvalues --    2.26229   2.27766   2.30270   2.30313   2.30530
 Alpha virt. eigenvalues --    2.31199   2.31550   2.31976   2.32368   2.32826
 Alpha virt. eigenvalues --    2.33758   2.34770   2.35914   2.41350   2.43545
 Alpha virt. eigenvalues --    2.45512   2.46185   2.47040   2.47541   2.47950
 Alpha virt. eigenvalues --    2.48148   2.48489   2.48850   2.49541   2.49780
 Alpha virt. eigenvalues --    2.50471   2.50799   2.51397   2.51808   2.52165
 Alpha virt. eigenvalues --    2.52588   2.54121   2.55020   2.56950   2.60052
 Alpha virt. eigenvalues --    2.64114   2.65398   2.66145   2.67300   2.67588
 Alpha virt. eigenvalues --    2.68409   2.68569   2.70105   2.70517   2.70746
 Alpha virt. eigenvalues --    2.71900   2.72236   2.72927   2.73574   2.74516
 Alpha virt. eigenvalues --    2.74836   2.75851   2.76853   2.80923   2.88368
 Alpha virt. eigenvalues --    2.88565   2.91347   2.92967   2.98756   3.00505
 Alpha virt. eigenvalues --    3.02080   3.03637   3.35412   3.36197
          Condensed to atoms (all electrons):
 Mulliken charges:
               1
     1  C   -0.075980
     2  C   -0.080103
     3  C   -0.086648
     4  C   -0.105403
     5  C   -0.123578
     6  H    0.120642
     7  H    0.119222
     8  H    0.122892
     9  H    0.115023
    10  H    0.122866
    11  Fe  -0.224506
    12  C   -0.085896
    13  C   -0.047360
    14  C   -0.132062
    15  C   -0.165284
    16  C   -0.004693
    17  H    0.101940
    18  H    0.121716
    19  H    0.109971
    20  C   -0.339167
    21  H    0.166734
    22  P    0.349178
    23  C   -0.303436
    24  H    0.161895
    25  H    0.139653
    26  H    0.131743
    27  P    0.371674
    28  C   -0.188779
    29  C   -0.092414
    30  C   -0.081953
    31  C   -0.130692
    32  C   -0.102805
    33  C   -0.080630
    34  H    0.098996
    35  H    0.098556
    36  H    0.111068
    37  H    0.109063
    38  H    0.092069
    39  C   -0.087334
    40  C   -0.100577
    41  C   -0.077269
    42  C   -0.143421
    43  C   -0.149835
    44  C   -0.085365
    45  H    0.093355
    46  H    0.091767
    47  H    0.121127
    48  H    0.094650
    49  H    0.092520
    50  C   -0.429022
    51  C   -0.317441
    52  H    0.121526
    53  H    0.191757
    54  H    0.109900
    55  C   -0.308927
    56  H    0.172740
    57  H    0.137189
    58  H    0.120406
    59  C   -0.280106
    60  H    0.140042
    61  H    0.136283
    62  H    0.118618
    63  C   -0.439283
    64  C   -0.277285
    65  H    0.130052
    66  H    0.137834
    67  H    0.110295
    68  C   -0.269771
    69  H    0.126378
    70  H    0.138181
    71  H    0.115551
    72  C   -0.317920
    73  H    0.203558
    74  H    0.153931
    75  H    0.112389
 Sum of Mulliken charges =  -0.00000
 Mulliken charges with hydrogens summed into heavy atoms:
               1
     1  C    0.044662
     2  C    0.039119
     3  C    0.036244
     4  C    0.009620
     5  C   -0.000713
    11  Fe  -0.224506
    12  C    0.016045
    13  C   -0.047360
    14  C   -0.132062
    15  C   -0.043568
    16  C    0.105277
    20  C   -0.172433
    22  P    0.349178
    23  C    0.129855
    27  P    0.371674
    28  C   -0.188779
    29  C    0.006581
    30  C    0.016603
    31  C   -0.019625
    32  C    0.006258
    33  C    0.011439
    39  C   -0.087334
    40  C   -0.007222
    41  C    0.014499
    42  C   -0.022294
    43  C   -0.055186
    44  C    0.007155
    50  C   -0.429022
    51  C    0.105741
    55  C    0.121408
    59  C    0.114837
    63  C   -0.439283
    64  C    0.100895
    68  C    0.110339
    72  C    0.151958
 Electronic spatial extent (au):  <R**2>=          17486.3234
 Charge=             -0.0000 electrons
 Dipole moment (field-independent basis, Debye):
    X=             -1.8706    Y=              0.9018    Z=              1.1377  Tot=              2.3679
 Quadrupole moment (field-independent basis, Debye-Ang):
[...]
   346. RY*(   7) C  33                  0.00005     2.18256   
   347. RY*(   8) C  33                  0.00000     1.75656   
   348. RY*(   9) C  33                  0.00001     2.06976   
   349. RY*(   1) H  34                  0.00168     0.32665   
   350. RY*(   1) H  35                  0.00169     0.32790   
   351. RY*(   1) H  36                  0.00187     0.38525   
   352. RY*(   1) H  37                  0.00299     0.56006   
   353. RY*(   1) H  38                  0.00177     0.32974   
   354. RY*(   1) C  39                  0.00676     1.22973   
   355. RY*(   2) C  39                  0.00306     0.84312   
   356. RY*(   3) C  39                  0.00268     0.75964   
   357. RY*(   4) C  39                  0.00134     1.04234   
   358. RY*(   5) C  39                  0.00077     1.93055   
   359. RY*(   6) C  39                  0.00032     1.70737   
   360. RY*(   7) C  39                  0.00026     2.32021   
   361. RY*(   8) C  39                  0.00016     2.07824   
   362. RY*(   9) C  39                  0.00003     2.18516   
   363. RY*(   1) C  40                  0.00541     1.20311   
   364. RY*(   2) C  40                  0.00268     0.69074   
   365. RY*(   3) C  40                  0.00108     0.64211   
   366. RY*(   4) C  40                  0.00098     0.66399   
   367. RY*(   5) C  40                  0.00072     1.94105   
   368. RY*(   6) C  40                  0.00014     2.34134   
   369. RY*(   7) C  40                  0.00005     2.19130   
   370. RY*(   8) C  40                  0.00000     1.76229   
   371. RY*(   9) C  40                  0.00001     2.07463   
   372. RY*(   1) C  41                  0.00596     1.19456   
   373. RY*(   2) C  41                  0.00267     0.69243   
   374. RY*(   3) C  41                  0.00088     0.98154   
   375. RY*(   4) C  41                  0.00081     1.56866   
   376. RY*(   5) C  41                  0.00067     0.75458   
   377. RY*(   6) C  41                  0.00015     2.34220   
   378. RY*(   7) C  41                  0.00005     2.17121   
   379. RY*(   8) C  41                  0.00000     1.75032   
   380. RY*(   9) C  41                  0.00001     2.08894   
   381. RY*(   1) C  42                  0.00705     1.18517   
   382. RY*(   2) C  42                  0.00318     0.79297   
   383. RY*(   3) C  42                  0.00148     0.75877   
   384. RY*(   4) C  42                  0.00108     0.74482   
   385. RY*(   5) C  42                  0.00056     1.73949   
   386. RY*(   6) C  42                  0.00014     2.31010   
   387. RY*(   7) C  42                  0.00005     2.27765   
   388. RY*(   8) C  42                  0.00002     2.11959   
   389. RY*(   9) C  42                  0.00002     1.84785   
   390. RY*(   1) C  43                  0.00727     1.16908   
   391. RY*(   2) C  43                  0.00311     0.75993   
   392. RY*(   3) C  43                  0.00127     0.76440   
   393. RY*(   4) C  43                  0.00104     0.72841   
   394. RY*(   5) C  43                  0.00063     1.79592   
   395. RY*(   6) C  43                  0.00015     2.29223   
   396. RY*(   7) C  43                  0.00005     2.25715   
   397. RY*(   8) C  43                  0.00006     2.03806   
   398. RY*(   9) C  43                  0.00002     1.96173   
   399. RY*(   1) C  44                  0.00587     1.18991   
   400. RY*(   2) C  44                  0.00277     0.68687   
   401. RY*(   3) C  44                  0.00088     1.45597   
   402. RY*(   4) C  44                  0.00083     0.90124   
   403. RY*(   5) C  44                  0.00070     0.92627   
   404. RY*(   6) C  44                  0.00015     2.33719   
   405. RY*(   7) C  44                  0.00005     2.17975   
   406. RY*(   8) C  44                  0.00000     1.76266   
   407. RY*(   9) C  44                  0.00001     2.07784   
   408. RY*(   1) H  45                  0.00168     0.33350   
   409. RY*(   1) H  46                  0.00175     0.33634   
   410. RY*(   1) H  47                  0.00263     0.44927   
   411. RY*(   1) H  48                  0.00207     0.39716   
   412. RY*(   1) H  49                  0.00171     0.33284   
   413. RY*(   1) C  50                  0.00369     0.81613   
   414. RY*(   2) C  50                  0.00346     1.03942   
   415. RY*(   3) C  50                  0.00327     0.95323   
   416. RY*(   4) C  50                  0.00103     1.00047   
   417. RY*(   5) C  50                  0.00064     1.96904   
   418. RY*(   6) C  50                  0.00059     2.06333   
   419. RY*(   7) C  50                  0.00057     2.04472   
   420. RY*(   8) C  50                  0.00039     2.18931   
   421. RY*(   9) C  50                  0.00037     1.98605   
   422. RY*(   1) C  51                  0.00452     0.87824   
   423. RY*(   2) C  51                  0.00417     0.86371   
   424. RY*(   3) C  51                  0.00225     0.81734   
   425. RY*(   4) C  51                  0.00032     0.75595   
   426. RY*(   5) C  51                  0.00008     1.96288   
   427. RY*(   6) C  51                  0.00002     1.97817   
   428. RY*(   7) C  51                  0.00001     2.01110   
   429. RY*(   8) C  51                  0.00002     2.07349   
   430. RY*(   9) C  51                  0.00001     2.06690   
   431. RY*(   1) H  52                  0.00134     0.47308   
   432. RY*(   1) H  53                  0.00457     0.68505   
   433. RY*(   1) H  54                  0.00253     0.40812   
   434. RY*(   1) C  55                  0.00489     0.85199   
   435. RY*(   2) C  55                  0.00404     0.83187   
   436. RY*(   3) C  55                  0.00191     0.85731   
   437. RY*(   4) C  55                  0.00034     0.80554   
   438. RY*(   5) C  55                  0.00008     1.99448   
   439. RY*(   6) C  55                  0.00002     1.88596   
   440. RY*(   7) C  55                  0.00002     1.97483   
   441. RY*(   8) C  55                  0.00001     2.01791   
   442. RY*(   9) C  55                  0.00002     2.11128   
   443. RY*(   1) H  56                  0.00436     0.66774   
   444. RY*(   1) H  57                  0.00169     0.40477   
   445. RY*(   1) H  58                  0.00209     0.40581   
   446. RY*(   1) C  59                  0.00476     0.82643   
   447. RY*(   2) C  59                  0.00418     0.82033   
   448. RY*(   3) C  59                  0.00159     0.81445   
   449. RY*(   4) C  59                  0.00021     0.73623   
   450. RY*(   5) C  59                  0.00005     2.01947   
   451. RY*(   6) C  59                  0.00002     1.93263   
   452. RY*(   7) C  59                  0.00002     2.01546   
   453. RY*(   8) C  59                  0.00001     1.98769   
   454. RY*(   9) C  59                  0.00001     2.05083   
   455. RY*(   1) H  60                  0.00195     0.41711   
   456. RY*(   1) H  61                  0.00132     0.48552   
   457. RY*(   1) H  62                  0.00226     0.39002   
   458. RY*(   1) C  63                  0.00374     0.84465   
   459. RY*(   2) C  63                  0.00333     1.08535   
   460. RY*(   3) C  63                  0.00295     0.84724   
   461. RY*(   4) C  63                  0.00099     0.96091   
   462. RY*(   5) C  63                  0.00065     2.05746   
   463. RY*(   6) C  63                  0.00064     2.01236   
   464. RY*(   7) C  63                  0.00059     2.07892   
   465. RY*(   8) C  63                  0.00037     2.09379   
   466. RY*(   9) C  63                  0.00033     2.09024   
   467. RY*(   1) C  64                  0.00444     0.86845   
   468. RY*(   2) C  64                  0.00422     0.86547   
   469. RY*(   3) C  64                  0.00215     0.83775   
   470. RY*(   4) C  64                  0.00025     0.76931   
   471. RY*(   5) C  64                  0.00006     1.95110   
   472. RY*(   6) C  64                  0.00002     1.95744   
   473. RY*(   7) C  64                  0.00001     2.00885   
   474. RY*(   8) C  64                  0.00002     1.96140   
   475. RY*(   9) C  64                  0.00002     2.12597   
   476. RY*(   1) H  65                  0.00141     0.50595   
   477. RY*(   1) H  66                  0.00152     0.50726   
   478. RY*(   1) H  67                  0.00259     0.39885   
   479. RY*(   1) C  68                  0.00480     0.79688   
   480. RY*(   2) C  68                  0.00421     0.85068   
   481. RY*(   3) C  68                  0.00159     0.86213   
   482. RY*(   4) C  68                  0.00023     0.76768   
   483. RY*(   5) C  68                  0.00007     2.00820   
   484. RY*(   6) C  68                  0.00001     1.89657   
   485. RY*(   7) C  68                  0.00001     2.00591   
   486. RY*(   8) C  68                  0.00002     1.99287   
   487. RY*(   9) C  68                  0.00001     2.06432   
   488. RY*(   1) H  69                  0.00144     0.46125   
   489. RY*(   1) H  70                  0.00162     0.46967   
   490. RY*(   1) H  71                  0.00211     0.39744   
   491. RY*(   1) C  72                  0.00468     0.88510   
   492. RY*(   2) C  72                  0.00415     0.87971   
   493. RY*(   3) C  72                  0.00215     0.90446   
   494. RY*(   4) C  72                  0.00036     0.77125   
   495. RY*(   5) C  72                  0.00004     2.04433   
   496. RY*(   6) C  72                  0.00002     2.09036   
   497. RY*(   7) C  72                  0.00003     2.05759   
   498. RY*(   8) C  72                  0.00001     1.92317   
   499. RY*(   9) C  72                  0.00002     2.04733   
   500. RY*(   1) H  73                  0.00619     0.75980   
   501. RY*(   1) H  74                  0.00203     0.51957   
   502. RY*(   1) H  75                  0.00208     0.41242   
   515. BD*(   1) C  12 - C  13          0.02420     0.53326   
   516. BD*(   1) C  12 - C  16          0.02861     0.52293   
   517. BD*(   2) C  12 - C  16          0.47442     0.04208  520(v),508(r),148(v),516(g)
                                                    142(r),145(r),146(r),539(r)
                                                    505(r),245(g),243(g),208(g)
                                                    209(g),207(g),206(r),204(r)
                                                    147(r),144(r),169(r)
   518. BD*(   1) C  12 - H  17          0.01700     0.48282   
   519. BD*(   1) C  13 - C  14          0.04915     0.50114   
   520. BD*(   2) C  13 - C  14          0.53114     0.02442  517(v),148(v),145(r),519(g)
                                                    142(r),531(v),143(r),529(v)
                                                    527(v),523(g),217(g),227(g)
                                                    530(v),508(r),138(r),505(r)
                                                    146(r),147(r),204(r),203(r)
                                                    205(r)
   521. BD*(   1) C  13 - C  20          0.03599     0.45190   
   522. BD*(   1) C  14 - C  15          0.04069     0.50553   
   523. BD*(   1) C  14 - P  22          0.03154     0.26489   
   524. BD*(   1) C  15 - C  16          0.03157     0.53551   
   525. BD*(   1) C  15 - H  18          0.01827     0.49964   
   526. BD*(   1) C  16 - H  19          0.01675     0.48716   
   527. BD*(   1) C  20 - H  21          0.02247     0.45749   
   528. BD*(   1) C  20 - C  23          0.01924     0.41050   
   529. BD*(   1) C  20 - P  27          0.04253     0.23212   
   530. BD*(   1) P  22 - C  50          0.05279     0.22351   
   531. BD*(   1) P  22 - C  63          0.05155     0.21332   
   532. BD*(   1) C  23 - H  24          0.00777     0.48177   
   533. BD*(   1) C  23 - H  25          0.01165     0.46642   
   534. BD*(   1) C  23 - H  26          0.00941     0.46160   
   535. BD*(   1) P  27 - C  28          0.03059     0.27222   
   536. BD*(   1) P  27 - C  39          0.04595     0.28018   
   537. BD*(   1) C  28 - C  31          0.02662     0.58224   
   538. BD*(   1) C  28 - C  32          0.03124     0.59737   
   539. BD*(   2) C  28 - C  32          0.36891     0.03741  542(v),545(v),333(g),536(v)
                                                    517(r),298(g),344(v)
   540. BD*(   1) C  29 - C  30          0.01864     0.59868   
   541. BD*(   1) C  29 - C  33          0.01825     0.60023   
   542. BD*(   2) C  29 - C  33          0.32877     0.04456  545(v),539(v),307(g),344(g)
                                                    343(g),317(v)
   543. BD*(   1) C  29 - H  34          0.01485     0.48492   
   544. BD*(   1) C  30 - C  31          0.01989     0.60696   
   545. BD*(   2) C  30 - C  31          0.31890     0.04365  542(v),539(v),316(g),324(g)
                                                    326(g)
   546. BD*(   1) C  30 - H  35          0.01480     0.48549   
   547. BD*(   1) C  31 - H  36          0.01665     0.49046   
   548. BD*(   1) C  32 - C  33          0.02095     0.60435   
   549. BD*(   1) C  32 - H  37          0.01777     0.50299   
   550. BD*(   1) C  33 - H  38          0.01501     0.48455   
   551. BD*(   1) C  39 - C  42          0.02674     0.60506   
   552. BD*(   2) C  39 - C  42          0.37343     0.04762  562(v),555(v),383(g),529(v)
                                                    357(g),376(v),384(g),392(v)
   553. BD*(   1) C  39 - C  43          0.02570     0.59108   
   554. BD*(   1) C  40 - C  41          0.01832     0.61162   
   555. BD*(   2) C  40 - C  41          0.33504     0.05343  562(v),552(v),365(g),376(g)
                                                    375(g),403(v)
   556. BD*(   1) C  40 - C  44          0.01856     0.60512   
   557. BD*(   1) C  40 - H  45          0.01487     0.49244   
   558. BD*(   1) C  41 - C  42          0.01990     0.61177   
   559. BD*(   1) C  41 - H  46          0.01495     0.49231   
   560. BD*(   1) C  42 - H  47          0.01734     0.50205   
   561. BD*(   1) C  43 - C  44          0.01971     0.61384   
   562. BD*(   2) C  43 - C  44          0.32474     0.05124  555(v),552(v),392(g),401(g)
                                                    394(g),403(g),402(g)
   563. BD*(   1) C  43 - H  48          0.01690     0.48347   
   564. BD*(   1) C  44 - H  49          0.01472     0.48952   
   565. BD*(   1) C  50 - C  51          0.02981     0.41767   
   566. BD*(   1) C  50 - C  55          0.02279     0.40569   
   567. BD*(   1) C  50 - C  59          0.02310     0.41360   
   568. BD*(   1) C  51 - H  52          0.00809     0.47850   
   569. BD*(   1) C  51 - H  53          0.01362     0.50626   
   570. BD*(   1) C  51 - H  54          0.01362     0.45816   
   571. BD*(   1) C  55 - H  56          0.01027     0.49469   
   572. BD*(   1) C  55 - H  57          0.00756     0.47741   
   573. BD*(   1) C  55 - H  58          0.01248     0.46189   
   574. BD*(   1) C  59 - H  60          0.00833     0.47819   
   575. BD*(   1) C  59 - H  61          0.00802     0.47228   
   576. BD*(   1) C  59 - H  62          0.01090     0.46110   
   577. BD*(   1) C  63 - C  64          0.02923     0.41691   
   578. BD*(   1) C  63 - C  68          0.02237     0.41380   
   579. BD*(   1) C  63 - C  72          0.02089     0.41834   
   580. BD*(   1) C  64 - H  65          0.00845     0.47713   
   581. BD*(   1) C  64 - H  66          0.00935     0.47552   
   582. BD*(   1) C  64 - H  67          0.01374     0.45992   
   583. BD*(   1) C  68 - H  69          0.00738     0.47803   
   584. BD*(   1) C  68 - H  70          0.00747     0.47956   
   585. BD*(   1) C  68 - H  71          0.01134     0.46551   
   586. BD*(   1) C  72 - H  73          0.01045     0.52052   
   587. BD*(   1) C  72 - H  74          0.00792     0.49532   
   588. BD*(   1) C  72 - H  75          0.01076     0.46806   
       -------------------------------
              Total Lewis  222.18060  ( 97.8568%)
        Valence non-Lewis    4.39340  (  1.9350%)
        Rydberg non-Lewis    0.47270  (  0.2082%)
       -------------------------------
            Total unit  3  227.04670  (100.0000%)
           Charge unit  3   -0.04670


 NATURAL LOCALIZED MOLECULAR ORBITAL (NLMO) ANALYSIS:

 Highest occupied NBOs are not at the beginning of the NBO list;
 The NLMO program is not currently set up to handle this.
 Leave Link  607 at Sat Aug 12 03:00:58 2023, MaxMem=  4026531840 cpu:              90.6 elap:               3.2
 (Enter /sw/arch/Centos8/EB_production/2021/software/Gaussian/g16.c01/l9999.exe)
 Unable to Open any file for archive entry.
 1\1\GINC-TCN95\SP\RPBE1PBE\def2SVPP\C32H40Fe1P2\ADARSH\12-Aug-2023\0\\
 #p pop=nbo NMR pbe1pbe/def2svpp empiricaldispersion=gd3bj integral=gri
 d=ultrafinegrid scf=(xqc,maxconventionalcycles=90) nosymm\\Cisa\\0,1\C
 ,0,-5.03201,0.19235,-1.24253\C,0,-5.07739,1.61012,-1.11383\C,0,-4.0359
 ,2.15956,-1.91556\C,0,-3.33928,1.0825,-2.53245\C,0,-3.96529,-0.13049,-
 2.12363\H,0,-5.68961,-0.5197,-0.74346\H,0,-5.77205,2.17591,-0.49262\H,
 0,-3.80772,3.22038,-2.02195\H,0,-2.48757,1.17017,-3.20824\H,0,-3.68385
 ,-1.13332,-2.43889\Fe,0,-3.26273,0.92281,-0.47979\C,0,-2.50264,2.22992
 ,0.88056\C,0,-1.44536,1.51908,0.23578\C,0,-1.61841,0.11083,0.51994\C,0
 ,-2.83241,-0.00142,1.28712\C,0,-3.35301,1.29392,1.52628\H,0,-2.67107,3
 .30464,0.83286\H,0,-3.27806,-0.92575,1.6467\H,0,-4.27171,1.52614,2.064
 73\C,0,-0.39165,2.16285,-0.62233\H,0,-0.40267,1.64863,-1.60005\P,0,-0.
 32632,-1.18433,0.42325\C,0,-0.63955,3.64781,-0.87587\H,0,0.08564,4.057
 69,-1.59327\H,0,-1.64807,3.77951,-1.30048\H,0,-0.57275,4.25655,0.03861
 \P,0,1.3154,1.72178,-0.01809\C,0,1.48496,2.17592,1.73687\C,0,1.86506,2
 .77153,4.44948\C,0,2.74666,1.91046,3.79509\C,0,2.55111,1.60654,2.45087
 \C,0,0.61009,3.04346,2.3998\C,0,0.79626,3.33136,3.75124\H,0,2.00877,3.
 00251,5.50881\H,0,3.5821,1.46058,4.33873\H,0,3.21537,0.89388,1.95364\H
 ,0,-0.23617,3.48678,1.8754\H,0,0.09817,4.00091,4.26139\C,0,2.39159,2.9
 1281,-0.89243\C,0,4.03836,4.68595,-2.30878\C,0,4.14279,4.58747,-0.9236
 6\C,0,3.32107,3.70864,-0.21537\C,0,2.29572,3.0146,-2.29012\C,0,3.10858
 ,3.89916,-2.99222\H,0,4.67971,5.37916,-2.86025\H,0,4.86496,5.20518,-0.
 38234\H,0,3.401,3.6548,0.87362\H,0,1.57463,2.39902,-2.83978\H,0,3.0178
 1,3.97534,-4.07954\C,0,-1.06253,-2.54135,-0.66933\C,0,-2.53326,-2.8467
 ,-0.38264\H,0,-2.6826,-3.32592,0.59534\H,0,-3.15134,-1.93941,-0.43094\
 H,0,-2.90386,-3.55096,-1.15053\C,0,-0.94545,-1.96158,-2.08555\H,0,-1.4
 8473,-1.00364,-2.1576\H,0,0.1015,-1.77055,-2.37134\H,0,-1.3868,-2.6632
 9,-2.81725\C,0,-0.25505,-3.83562,-0.54627\H,0,0.83032,-3.67649,-0.6036
 1\H,0,-0.46665,-4.3633,0.39694\H,0,-0.53788,-4.51722,-1.36899\C,0,-0.1
 7822,-1.75921,2.24669\C,0,-1.25169,-2.74589,2.7084\H,0,-2.27078,-2.339
 97,2.6337\H,0,-1.2136,-3.7043,2.16927\H,0,-1.07415,-2.96843,3.77646\C,
 0,1.19211,-2.41789,2.42117\H,0,1.29043,-3.33987,1.82515\H,0,2.00584,-1
 .72446,2.14538\H,0,1.32424,-2.6982,3.48187\C,0,-0.22769,-0.52402,3.149
 77\H,0,0.51949,0.22805,2.86158\H,0,-1.21667,-0.04185,3.15298\H,0,-0.00
 139,-0.83923,4.18439\\Version=ES64L-G16RevC.01\HF=-3186.7153242\RMSD=6
 .178e-09\Dipole=-0.7359672,0.3548136,0.4476175\Quadrupole=-2.1170585,0
 .5032507,1.6138078,-1.1130239,-1.1883118,1.3850385\PG=C01 [X(C32H40Fe1
 P2)]\\@
 The archive entry for this job was punched.


 NOT WHAT WE DID SHALL BE THE TEST
 WHEN ACT AND WILL ARE DONE,
 BUT WHAT OUR LORD INFERS WE WOULD-
 HAD WE DIVINER BEEN.
           EMILY DICKINSON  POEMS NO. CLXXV
 Job cpu time:       0 days  2 hours  5 minutes 22.8 seconds.
 Elapsed time:       0 days  0 hours  5 minutes  7.6 seconds.
 File lengths (MBytes):  RWF=    432 Int=      0 D2E=      0 Chk=     32 Scr=     32
 Normal termination of Gaussian 16 at Sat Aug 12 03:00:58 2023.
