 Entering Gaussian System, Link 0=g16
 Input=free_ligand_L15_SP.inp
 Output=free_ligand_L15_SP.log
 Initial command:
 /sw/arch/RHEL8/EB_production/2022/software/Gaussian/g16.c02/l1.exe "/scratch-local/adarsh.3962519/Gau-1302908.inp" -scrdir="/scratch-local/adarsh.3962519/"
 Entering Link 1 = /sw/arch/RHEL8/EB_production/2022/software/Gaussian/g16.c02/l1.exe PID=   1303022.
  
 Copyright (c) 1988-2021, Gaussian, Inc.  All Rights Reserved.
  
 This is part of the Gaussian(R) 16 program.  It is based on
 the Gaussian(R) 09 system (copyright 2009, Gaussian, Inc.),
 the Gaussian(R) 03 system (copyright 2003, Gaussian, Inc.),
 the Gaussian(R) 98 system (copyright 1998, Gaussian, Inc.),
 the Gaussian(R) 94 system (copyright 1995, Gaussian, Inc.),
 the Gaussian 92(TM) system (copyright 1992, Gaussian, Inc.),
 the Gaussian 90(TM) system (copyright 1990, Gaussian, Inc.),
 the Gaussian 88(TM) system (copyright 1988, Gaussian, Inc.),
 the Gaussian 86(TM) system (copyright 1986, Carnegie Mellon
 University), and the Gaussian 82(TM) system (copyright 1983,
 Carnegie Mellon University). Gaussian is a federally registered
 trademark of Gaussian, Inc.
  
 This software contains proprietary and confidential information,
 including trade secrets, belonging to Gaussian, Inc.
  
 This software is provided under written license and may be
 used, copied, transmitted, or stored only in accord with that
 written license.
  
 The following legend is applicable only to US Government
 contracts under FAR:
  
                    RESTRICTED RIGHTS LEGEND
  
 Use, reproduction and disclosure by the US Government is
 subject to restrictions as set forth in subparagraphs (a)
 and (c) of the Commercial Computer Software - Restricted
 Rights clause in FAR 52.227-19.
  
 Gaussian, Inc.
 340 Quinnipiac St., Bldg. 40, Wallingford CT 06492
  
  
 ---------------------------------------------------------------
 Warning -- This program may not be used in any manner that
 competes with the business of Gaussian, Inc. or will provide
 assistance to any competitor of Gaussian, Inc.  The licensee
 of this program is prohibited from giving any competitor of
 Gaussian, Inc. access to this program.  By using this program,
 the user acknowledges that Gaussian, Inc. is engaged in the
 business of creating and licensing software in the field of
 computational chemistry and represents and warrants to the
 licensee that it is not a competitor of Gaussian, Inc. and that
 it will not use this program in any manner prohibited above.
 ---------------------------------------------------------------
  

 Cite this work as:
 Gaussian 16, Revision C.02,
 M. J. Frisch, G. W. Trucks, H. B. Schlegel, G. E. Scuseria, 
 M. A. Robb, J. R. Cheeseman, G. Scalmani, V. Barone, 
 G. A. Petersson, H. Nakatsuji, X. Li, M. Caricato, A. V. Marenich, 
 J. Bloino, B. G. Janesko, R. Gomperts, B. Mennucci, H. P. Hratchian, 
 J. V. Ortiz, A. F. Izmaylov, J. L. Sonnenberg, D. Williams-Young, 
 F. Ding, F. Lipparini, F. Egidi, J. Goings, B. Peng, A. Petrone, 
 T. Henderson, D. Ranasinghe, V. G. Zakrzewski, J. Gao, N. Rega, 
 G. Zheng, W. Liang, M. Hada, M. Ehara, K. Toyota, R. Fukuda, 
 J. Hasegawa, M. Ishida, T. Nakajima, Y. Honda, O. Kitao, H. Nakai, 
 T. Vreven, K. Throssell, J. A. Montgomery, Jr., J. E. Peralta, 
 F. Ogliaro, M. J. Bearpark, J. J. Heyd, E. N. Brothers, K. N. Kudin, 
 V. N. Staroverov, T. A. Keith, R. Kobayashi, J. Normand, 
 K. Raghavachari, A. P. Rendell, J. C. Burant, S. S. Iyengar, 
 J. Tomasi, M. Cossi, J. M. Millam, M. Klene, C. Adamo, R. Cammi, 
 J. W. Ochterski, R. L. Martin, K. Morokuma, O. Farkas, 
 J. B. Foresman, and D. J. Fox, Gaussian, Inc., Wallingford CT, 2019.
 
 ******************************************
 Gaussian 16:  ES64L-G16RevC.02  7-Dec-2021
                29-Sep-2023 
 ******************************************
 %nprocshared=32
 Will use up to   32 processors via shared memory.
 %mem=30GB
 %chk=free_ligand_L15.chk
 ----------------------------------------------------------------------
 #p pop=nbo pbe1pbe/def2svpp empiricaldispersion=gd3bj integral=grid=ul
 trafinegrid scf=(xqc,maxconventionalcycles=90) nosymm
 ----------------------------------------------------------------------
 1/38=1,172=1/1;
 2/12=2,15=1,17=6,18=5,40=1/2;
 3/5=43,7=202,11=2,25=1,30=1,74=-13,75=-5,124=41/1,2,3;
 4//1;
 5/5=2,8=3,13=1,38=5,85=90/2,8;
 6/7=2,8=2,9=2,10=2,28=1,40=1/1,7;
 99/5=1,9=1/99;
 Leave Link    1 at Fri Sep 29 19:31:34 2023, MaxMem=  4026531840 cpu:               0.3 elap:               0.7
 (Enter /sw/arch/RHEL8/EB_production/2022/software/Gaussian/g16.c02/l101.exe)
 ----
 Cisa
 ----
 Symbolic Z-matrix:
 Charge =  0 Multiplicity = 1
 P                     0.14549   0.80908  -0.58508 
 P                    -2.66048  -0.75927  -0.06148 
 C                    -1.4029   -2.15235   0.07016 
 C                    -1.88512  -3.54302   0.46707 
 C                     0.59748  -0.50918   0.54801 
 C                    -0.17652  -1.69996   0.81131 
 C                     0.50095  -2.41503   1.84273 
 C                     1.67543  -1.69641   2.20717 
 C                     1.74466  -0.52405   1.41158 
 H                    -1.11681  -2.21072  -0.99278 
 H                    -1.15752  -4.29089   0.10887 
 H                    -2.86405  -3.77715   0.02054 
 H                    -1.97809  -3.66951   1.55225 
 H                     2.53196   0.2292    1.43367 
 C                    -3.47984   1.78766   3.71543 
 C                    -3.48166   0.40142   3.85074 
 C                    -3.22932  -0.45148   2.7698 
 C                    -2.95094   0.13052   1.51296 
 C                    -2.95205   1.52998   1.38954 
 C                    -3.2195    2.35878   2.4739 
 H                    -2.72499   1.9726    0.41308 
 C                    -6.73583  -2.56589  -1.2941 
 C                    -6.63201  -1.78406  -0.14685 
 C                    -5.39199  -1.27221   0.22514 
 C                    -4.24362  -1.53711  -0.53451 
 C                    -4.34409  -2.31408  -1.71372 
 C                    -5.6026   -2.81716  -2.06386 
 H                    -5.31642  -0.64989   1.12093 
 Fe                    1.71403  -2.1538    0.20843 
 C                     2.6742   -3.92105  -0.18013 
 C                     3.58707  -2.83116  -0.26367 
 C                     3.11455  -1.93286  -1.2621 
 C                     1.90813  -2.47207  -1.80213 
 C                     1.63879  -3.70011  -1.13429 
 H                     2.74343  -4.76392   0.50779 
 H                     3.58322  -0.99012  -1.54641 
 H                     1.29417  -2.00932  -2.57527 
 H                     0.78266  -4.35205  -1.31094 
 H                    -3.6896    2.41914   4.58368 
 H                    -7.70303  -2.97521  -1.59906 
 H                     2.41379  -2.01522   2.94271 
 H                     0.2049   -3.3818    2.24731 
 H                     4.47405  -2.69139   0.35464 
 C                     1.59045   1.17007  -1.60069 
 C                     2.69358   1.95667  -1.39788 
 O                     1.66813   0.58189  -2.82327 
 C                     3.49966   1.82582  -2.56842 
 H                     2.89755   2.55961  -0.51392 
 C                     2.82264   0.97629  -3.39477 
 H                     4.4554    2.30673  -2.77241 
 H                     3.0255    0.57739  -4.38703 
 C                     0.15178   2.22954   0.53126 
 C                     0.25851   2.33798   1.8924 
 O                    -0.08602   3.4544   -0.00731 
 C                     0.08498   3.72175   2.19741 
 H                     0.42126   1.52027   2.59131 
 C                    -0.11824   4.34689   1.00226 
 H                     0.11201   4.1892    3.18062 
 H                    -0.28038   5.38451   0.71601 
 C                    -3.26144  -1.93091   3.00254 
 H                    -3.81641  -2.16919   3.92357 
 H                    -3.7395   -2.47121   2.17021 
 H                    -2.23696  -2.32441   3.12505 
 C                    -3.17137  -2.61844  -2.60628 
 H                    -2.60144  -3.49441  -2.24832 
 H                    -3.51291  -2.85451  -3.62707 
 H                    -2.46744  -1.76606  -2.6742 
 H                    -5.69318  -3.41957  -2.97331 
 H                    -7.51491  -1.56767   0.46078 
 H                    -3.69741  -0.04239   4.82747 
 H                    -3.21338   3.44407   2.34584 
 
 ITRead=  0  0  0  0  0  0  0  0  0  0  0  0  0  0  0  0  0  0  0  0
 ITRead=  0  0  0  0  0  0  0  0  0  0  0  0  0  0  0  0  0  0  0  0
 ITRead=  0  0  0  0  0  0  0  0  0  0  0  0  0  0  0  0  0  0  0  0
 ITRead=  0  0  0  0  0  0  0  0  0  0  0
 MicOpt= -1 -1 -1 -1 -1 -1 -1 -1 -1 -1 -1 -1 -1 -1 -1 -1 -1 -1 -1 -1
 MicOpt= -1 -1 -1 -1 -1 -1 -1 -1 -1 -1 -1 -1 -1 -1 -1 -1 -1 -1 -1 -1
 MicOpt= -1 -1 -1 -1 -1 -1 -1 -1 -1 -1 -1 -1 -1 -1 -1 -1 -1 -1 -1 -1
 MicOpt= -1 -1 -1 -1 -1 -1 -1 -1 -1 -1 -1
 NAtoms=     71 NQM=       71 NQMF=       0 NMMI=      0 NMMIF=      0
                NMic=       0 NMicF=      0.
                    Isotopes and Nuclear Properties:
 (Nuclear quadrupole moments (NQMom) in fm**2, nuclear magnetic moments (NMagM)
  in nuclear magnetons)

  Atom         1           2           3           4           5           6           7           8           9          10
 IAtWgt=          31          31          12          12          12          12          12          12          12           1
 AtmWgt=  30.9737634  30.9737634  12.0000000  12.0000000  12.0000000  12.0000000  12.0000000  12.0000000  12.0000000   1.0078250
 NucSpn=           1           1           0           0           0           0           0           0           0           1
 AtZEff=  -0.0000000  -0.0000000  -0.0000000  -0.0000000  -0.0000000  -0.0000000  -0.0000000  -0.0000000  -0.0000000  -0.0000000
 NQMom=    0.0000000   0.0000000   0.0000000   0.0000000   0.0000000   0.0000000   0.0000000   0.0000000   0.0000000   0.0000000
 NMagM=    1.1316000   1.1316000   0.0000000   0.0000000   0.0000000   0.0000000   0.0000000   0.0000000   0.0000000   2.7928460
 AtZNuc=  15.0000000  15.0000000   6.0000000   6.0000000   6.0000000   6.0000000   6.0000000   6.0000000   6.0000000   1.0000000

  Atom        11          12          13          14          15          16          17          18          19          20
 IAtWgt=           1           1           1           1          12          12          12          12          12          12
 AtmWgt=   1.0078250   1.0078250   1.0078250   1.0078250  12.0000000  12.0000000  12.0000000  12.0000000  12.0000000  12.0000000
 NucSpn=           1           1           1           1           0           0           0           0           0           0
 AtZEff=  -0.0000000  -0.0000000  -0.0000000  -0.0000000  -0.0000000  -0.0000000  -0.0000000  -0.0000000  -0.0000000  -0.0000000
 NQMom=    0.0000000   0.0000000   0.0000000   0.0000000   0.0000000   0.0000000   0.0000000   0.0000000   0.0000000   0.0000000
 NMagM=    2.7928460   2.7928460   2.7928460   2.7928460   0.0000000   0.0000000   0.0000000   0.0000000   0.0000000   0.0000000
 AtZNuc=   1.0000000   1.0000000   1.0000000   1.0000000   6.0000000   6.0000000   6.0000000   6.0000000   6.0000000   6.0000000

  Atom        21          22          23          24          25          26          27          28          29          30
 IAtWgt=           1          12          12          12          12          12          12           1          56          12
 AtmWgt=   1.0078250  12.0000000  12.0000000  12.0000000  12.0000000  12.0000000  12.0000000   1.0078250  55.9349393  12.0000000
 NucSpn=           1           0           0           0           0           0           0           1           0           0
 AtZEff=  -0.0000000  -0.0000000  -0.0000000  -0.0000000  -0.0000000  -0.0000000  -0.0000000  -0.0000000  -0.0000000  -0.0000000
 NQMom=    0.0000000   0.0000000   0.0000000   0.0000000   0.0000000   0.0000000   0.0000000   0.0000000   0.0000000   0.0000000
 NMagM=    2.7928460   0.0000000   0.0000000   0.0000000   0.0000000   0.0000000   0.0000000   2.7928460   0.0000000   0.0000000
 AtZNuc=   1.0000000   6.0000000   6.0000000   6.0000000   6.0000000   6.0000000   6.0000000   1.0000000  26.0000000   6.0000000

  Atom        31          32          33          34          35          36          37          38          39          40
 IAtWgt=          12          12          12          12           1           1           1           1           1           1
 AtmWgt=  12.0000000  12.0000000  12.0000000  12.0000000   1.0078250   1.0078250   1.0078250   1.0078250   1.0078250   1.0078250
 NucSpn=           0           0           0           0           1           1           1           1           1           1
 AtZEff=  -0.0000000  -0.0000000  -0.0000000  -0.0000000  -0.0000000  -0.0000000  -0.0000000  -0.0000000  -0.0000000  -0.0000000
 NQMom=    0.0000000   0.0000000   0.0000000   0.0000000   0.0000000   0.0000000   0.0000000   0.0000000   0.0000000   0.0000000
 NMagM=    0.0000000   0.0000000   0.0000000   0.0000000   2.7928460   2.7928460   2.7928460   2.7928460   2.7928460   2.7928460
 AtZNuc=   6.0000000   6.0000000   6.0000000   6.0000000   1.0000000   1.0000000   1.0000000   1.0000000   1.0000000   1.0000000

  Atom        41          42          43          44          45          46          47          48          49          50
 IAtWgt=           1           1           1          12          12          16          12           1          12           1
 AtmWgt=   1.0078250   1.0078250   1.0078250  12.0000000  12.0000000  15.9949146  12.0000000   1.0078250  12.0000000   1.0078250
 NucSpn=           1           1           1           0           0           0           0           1           0           1
 AtZEff=  -0.0000000  -0.0000000  -0.0000000  -0.0000000  -0.0000000  -0.0000000  -0.0000000  -0.0000000  -0.0000000  -0.0000000
 NQMom=    0.0000000   0.0000000   0.0000000   0.0000000   0.0000000   0.0000000   0.0000000   0.0000000   0.0000000   0.0000000
 NMagM=    2.7928460   2.7928460   2.7928460   0.0000000   0.0000000   0.0000000   0.0000000   2.7928460   0.0000000   2.7928460
 AtZNuc=   1.0000000   1.0000000   1.0000000   6.0000000   6.0000000   8.0000000   6.0000000   1.0000000   6.0000000   1.0000000

  Atom        51          52          53          54          55          56          57          58          59          60
 IAtWgt=           1          12          12          16          12           1          12           1           1          12
 AtmWgt=   1.0078250  12.0000000  12.0000000  15.9949146  12.0000000   1.0078250  12.0000000   1.0078250   1.0078250  12.0000000
 NucSpn=           1           0           0           0           0           1           0           1           1           0
 AtZEff=  -0.0000000  -0.0000000  -0.0000000  -0.0000000  -0.0000000  -0.0000000  -0.0000000  -0.0000000  -0.0000000  -0.0000000
 NQMom=    0.0000000   0.0000000   0.0000000   0.0000000   0.0000000   0.0000000   0.0000000   0.0000000   0.0000000   0.0000000
 NMagM=    2.7928460   0.0000000   0.0000000   0.0000000   0.0000000   2.7928460   0.0000000   2.7928460   2.7928460   0.0000000
 AtZNuc=   1.0000000   6.0000000   6.0000000   8.0000000   6.0000000   1.0000000   6.0000000   1.0000000   1.0000000   6.0000000

  Atom        61          62          63          64          65          66          67          68          69          70
 IAtWgt=           1           1           1          12           1           1           1           1           1           1
 AtmWgt=   1.0078250   1.0078250   1.0078250  12.0000000   1.0078250   1.0078250   1.0078250   1.0078250   1.0078250   1.0078250
 NucSpn=           1           1           1           0           1           1           1           1           1           1
 AtZEff=  -0.0000000  -0.0000000  -0.0000000  -0.0000000  -0.0000000  -0.0000000  -0.0000000  -0.0000000  -0.0000000  -0.0000000
 NQMom=    0.0000000   0.0000000   0.0000000   0.0000000   0.0000000   0.0000000   0.0000000   0.0000000   0.0000000   0.0000000
 NMagM=    2.7928460   2.7928460   2.7928460   0.0000000   2.7928460   2.7928460   2.7928460   2.7928460   2.7928460   2.7928460
 AtZNuc=   1.0000000   1.0000000   1.0000000   6.0000000   1.0000000   1.0000000   1.0000000   1.0000000   1.0000000   1.0000000

  Atom        71
 IAtWgt=           1
 AtmWgt=   1.0078250
 NucSpn=           1
 AtZEff=  -0.0000000
 NQMom=    0.0000000
 NMagM=    2.7928460
 AtZNuc=   1.0000000
 Leave Link  101 at Fri Sep 29 19:31:34 2023, MaxMem=  4026531840 cpu:               0.8 elap:               0.1
 (Enter /sw/arch/RHEL8/EB_production/2022/software/Gaussian/g16.c02/l202.exe)
 Symmetry turned off by external request.
 Stoichiometry    C34H32FeO2P2
 Framework group  C1[X(C34H32FeO2P2)]
 Deg. of freedom   207
 Full point group                 C1      NOp   1
                          Input orientation:                          
 ---------------------------------------------------------------------
 Center     Atomic      Atomic             Coordinates (Angstroms)
 Number     Number       Type             X           Y           Z
 ---------------------------------------------------------------------
      1         15           0        0.145490    0.809080   -0.585080
      2         15           0       -2.660480   -0.759270   -0.061480
      3          6           0       -1.402900   -2.152350    0.070160
      4          6           0       -1.885120   -3.543020    0.467070
      5          6           0        0.597480   -0.509180    0.548010
      6          6           0       -0.176520   -1.699960    0.811310
      7          6           0        0.500950   -2.415030    1.842730
      8          6           0        1.675430   -1.696410    2.207170
      9          6           0        1.744660   -0.524050    1.411580
     10          1           0       -1.116810   -2.210720   -0.992780
     11          1           0       -1.157520   -4.290890    0.108870
     12          1           0       -2.864050   -3.777150    0.020540
     13          1           0       -1.978090   -3.669510    1.552250
     14          1           0        2.531960    0.229200    1.433670
     15          6           0       -3.479840    1.787660    3.715430
     16          6           0       -3.481660    0.401420    3.850740
     17          6           0       -3.229320   -0.451480    2.769800
     18          6           0       -2.950940    0.130520    1.512960
     19          6           0       -2.952050    1.529980    1.389540
     20          6           0       -3.219500    2.358780    2.473900
     21          1           0       -2.724990    1.972600    0.413080
     22          6           0       -6.735830   -2.565890   -1.294100
     23          6           0       -6.632010   -1.784060   -0.146850
     24          6           0       -5.391990   -1.272210    0.225140
     25          6           0       -4.243620   -1.537110   -0.534510
     26          6           0       -4.344090   -2.314080   -1.713720
     27          6           0       -5.602600   -2.817160   -2.063860
     28          1           0       -5.316420   -0.649890    1.120930
     29         26           0        1.714030   -2.153800    0.208430
     30          6           0        2.674200   -3.921050   -0.180130
     31          6           0        3.587070   -2.831160   -0.263670
     32          6           0        3.114550   -1.932860   -1.262100
     33          6           0        1.908130   -2.472070   -1.802130
     34          6           0        1.638790   -3.700110   -1.134290
     35          1           0        2.743430   -4.763920    0.507790
     36          1           0        3.583220   -0.990120   -1.546410
     37          1           0        1.294170   -2.009320   -2.575270
     38          1           0        0.782660   -4.352050   -1.310940
     39          1           0       -3.689600    2.419140    4.583680
     40          1           0       -7.703030   -2.975210   -1.599060
     41          1           0        2.413790   -2.015220    2.942710
     42          1           0        0.204900   -3.381800    2.247310
     43          1           0        4.474050   -2.691390    0.354640
     44          6           0        1.590450    1.170070   -1.600690
     45          6           0        2.693580    1.956670   -1.397880
     46          8           0        1.668130    0.581890   -2.823270
     47          6           0        3.499660    1.825820   -2.568420
     48          1           0        2.897550    2.559610   -0.513920
     49          6           0        2.822640    0.976290   -3.394770
     50          1           0        4.455400    2.306730   -2.772410
     51          1           0        3.025500    0.577390   -4.387030
     52          6           0        0.151780    2.229540    0.531260
     53          6           0        0.258510    2.337980    1.892400
     54          8           0       -0.086020    3.454400   -0.007310
     55          6           0        0.084980    3.721750    2.197410
     56          1           0        0.421260    1.520270    2.591310
     57          6           0       -0.118240    4.346890    1.002260
     58          1           0        0.112010    4.189200    3.180620
     59          1           0       -0.280380    5.384510    0.716010
     60          6           0       -3.261440   -1.930910    3.002540
     61          1           0       -3.816410   -2.169190    3.923570
     62          1           0       -3.739500   -2.471210    2.170210
     63          1           0       -2.236960   -2.324410    3.125050
     64          6           0       -3.171370   -2.618440   -2.606280
     65          1           0       -2.601440   -3.494410   -2.248320
     66          1           0       -3.512910   -2.854510   -3.627070
     67          1           0       -2.467440   -1.766060   -2.674200
     68          1           0       -5.693180   -3.419570   -2.973310
     69          1           0       -7.514910   -1.567670    0.460780
     70          1           0       -3.697410   -0.042390    4.827470
     71          1           0       -3.213380    3.444070    2.345840
 ---------------------------------------------------------------------
 Rotational constants (GHZ):           0.1166810           0.0797756           0.0648540
 Leave Link  202 at Fri Sep 29 19:31:34 2023, MaxMem=  4026531840 cpu:               0.1 elap:               0.0
 (Enter /sw/arch/RHEL8/EB_production/2022/software/Gaussian/g16.c02/l301.exe)
 Standard basis: def2SVPP (5D, 7F)
 Ernie: Thresh=  0.10000D-02 Tol=  0.10000D-05 Strict=F.
   628 basis functions,  1173 primitive gaussians,   668 cartesian basis functions
   154 alpha electrons      154 beta electrons
       nuclear repulsion energy      5734.9284196221 Hartrees.
 IExCor= 1009 DFT=T Ex+Corr=PBE1PBE ExCW=0 ScaHFX=  0.250000
 ScaDFX=  0.750000  0.750000  1.000000  1.000000 ScalE2=  1.000000  1.000000
 IRadAn=      5 IRanWt=     -1 IRanGd=            0 ICorTp=0 IEmpDi=141
 NAtoms=   71 NActive=   71 NUniq=   71 SFac= 1.00D+00 NAtFMM=   60 NAOKFM=T Big=T
 Integral buffers will be    131072 words long.
 Raffenetti 2 integral format.
 Two-electron integral symmetry is turned off.
 R6Disp:  Grimme-D3(BJ) Dispersion energy=       -0.1150312003 Hartrees.
 Nuclear repulsion after empirical dispersion term =     5734.8133884218 Hartrees.
 Leave Link  301 at Fri Sep 29 19:31:34 2023, MaxMem=  4026531840 cpu:               0.1 elap:               0.0
 (Enter /sw/arch/RHEL8/EB_production/2022/software/Gaussian/g16.c02/l302.exe)
 NPDir=0 NMtPBC=     1 NCelOv=     1 NCel=       1 NClECP=     1 NCelD=      1
         NCelK=      1 NCelE2=     1 NClLst=     1 CellRange=     0.0.
 One-electron integrals computed using PRISM.
   1 Symmetry operations used in ECPInt.
 ECPInt:  NShTT=   46971 NPrTT=  195650 LenC2=   41434 LenP2D=  108787.
 LDataN:  DoStor=T MaxTD1= 4 Len=   56
 NBasis=   628 RedAO= T EigKep=  2.42D-04  NBF=   628
 NBsUse=   628 1.00D-06 EigRej= -1.00D+00 NBFU=   628
 Precomputing XC quadrature grid using
 IXCGrd= 4 IRadAn=           5 IRanWt=          -1 IRanGd=           0 AccXCQ= 0.00D+00.
 Generated NRdTot=       0 NPtTot=           0 NUsed=           0 NTot=          32
 NSgBfM=   655   654   654   654   655 MxSgAt=    71 MxSgA2=    71.
 Leave Link  302 at Fri Sep 29 19:31:35 2023, MaxMem=  4026531840 cpu:              18.7 elap:               1.0
 (Enter /sw/arch/RHEL8/EB_production/2022/software/Gaussian/g16.c02/l303.exe)
 DipDrv:  MaxL=1.
 Leave Link  303 at Fri Sep 29 19:31:35 2023, MaxMem=  4026531840 cpu:               0.4 elap:               0.1
 (Enter /sw/arch/RHEL8/EB_production/2022/software/Gaussian/g16.c02/l401.exe)
 ExpMin= 3.37D-02 ExpMax= 6.09D+04 ExpMxC= 9.15D+03 IAcc=3 IRadAn=         5 AccDes= 0.00D+00
 Harris functional with IExCor= 1009 and IRadAn=       5 diagonalized for initial guess.
 HarFok:  IExCor= 1009 AccDes= 0.00D+00 IRadAn=         5 IDoV= 1 UseB2=F ITyADJ=14
 ICtDFT=  3500011 ScaDFX=  1.000000  1.000000  1.000000  1.000000
 FoFCou: FMM=F IPFlag=           0 FMFlag=      100000 FMFlg1=        2001
         NFxFlg=           0 DoJE=T BraDBF=F KetDBF=T FulRan=T
         wScrn=  0.000000 ICntrl=       500 IOpCl=  0 I1Cent=   200000004 NGrid=           0
         NMat0=    1 NMatS0=      1 NMatT0=    0 NMatD0=    1 NMtDS0=    0 NMtDT0=    0
 Symmetry not used in FoFCou.
 Harris En= -3408.44334898854    
 JPrj=0 DoOrth=F DoCkMO=F.
 Leave Link  401 at Fri Sep 29 19:31:37 2023, MaxMem=  4026531840 cpu:              51.7 elap:               1.9
 (Enter /sw/arch/RHEL8/EB_production/2022/software/Gaussian/g16.c02/l502.exe)
 Two-electron integral symmetry not used.
 Closed shell SCF:
 Using DIIS extrapolation, IDIIS=  1040.
 NGot=  4026531840 LenX=  4025609824 LenY=  4025162932
 Requested convergence on RMS density matrix=1.00D-08 within  90 cycles.
 Requested convergence on MAX density matrix=1.00D-06.
 Requested convergence on             energy=1.00D-06.
 No special actions if energy rises.
 Fock matrices will be formed incrementally for  20 cycles.

 Cycle   1  Pass 1  IDiag  1:
 FoFJK:  IHMeth= 1 ICntrl=       0 DoSepK=F KAlg= 0 I1Cent=           0 FoldK=F
 IRaf= 990000000 NMat=       1 IRICut=       1 DoRegI=T DoRafI=F ISym2E= 0 IDoP0=0 IntGTp=1.
 FoFCou: FMM=T IPFlag=           0 FMFlag=      100000 FMFlg1=        2001
         NFxFlg=           0 DoJE=F BraDBF=F KetDBF=F FulRan=T
         wScrn=  0.000000 ICntrl=         0 IOpCl=  0 I1Cent=           0 NGrid=           0
         NMat0=    1 NMatS0=      1 NMatT0=    0 NMatD0=    1 NMtDS0=    0 NMtDT0=    0
 Symmetry not used in FoFCou.
 FMM levels:  10  Number of levels for PrismC:   9
 E= -3407.30005528290    
 DIIS: error= 1.93D-02 at cycle   1 NSaved=   1.
 NSaved= 1 IEnMin= 1 EnMin= -3407.30005528290     IErMin= 1 ErrMin= 1.93D-02
 ErrMax= 1.93D-02  0.00D+00 EMaxC= 1.00D-01 BMatC= 7.92D-01 BMatP= 7.92D-01
 IDIUse=3 WtCom= 8.07D-01 WtEn= 1.93D-01
 Coeff-Com:  0.100D+01
 Coeff-En:   0.100D+01
 Coeff:      0.100D+01
 Gap=     0.249 Goal=   None    Shift=    0.000
 GapD=    0.249 DampG=1.000 DampE=0.250 DampFc=0.2500 IDamp=-1.
 Damping current iteration by 2.50D-01
 RMSDP=4.34D-03 MaxDP=2.05D-01              OVMax= 2.09D-01

 Cycle   2  Pass 1  IDiag  1:
 RMSU=  1.03D-03    CP:  9.81D-01
 E= -3407.58861412307     Delta-E=       -0.288558840170 Rises=F Damp=T
 DIIS: error= 9.17D-03 at cycle   2 NSaved=   2.
 NSaved= 2 IEnMin= 2 EnMin= -3407.58861412307     IErMin= 2 ErrMin= 9.17D-03
 ErrMax= 9.17D-03  0.00D+00 EMaxC= 1.00D-01 BMatC= 2.03D-01 BMatP= 7.92D-01
 IDIUse=3 WtCom= 9.08D-01 WtEn= 9.17D-02
 Coeff-Com: -0.512D+00 0.151D+01
 Coeff-En:   0.000D+00 0.100D+01
 Coeff:     -0.465D+00 0.146D+01
 Gap=     0.262 Goal=   None    Shift=    0.000
 RMSDP=4.37D-03 MaxDP=3.89D-01 DE=-2.89D-01 OVMax= 4.44D-01

 Cycle   3  Pass 1  IDiag  1:
 RMSU=  4.34D-03    CP:  9.80D-01  1.53D+00
 E= -3406.55324634336     Delta-E=        1.035367779717 Rises=F Damp=F
 DIIS: error= 1.05D-01 at cycle   3 NSaved=   3.
 NSaved= 3 IEnMin= 2 EnMin= -3407.58861412307     IErMin= 2 ErrMin= 9.17D-03
 ErrMax= 1.05D-01  0.00D+00 EMaxC= 1.00D-01 BMatC= 2.50D+00 BMatP= 2.03D-01
 IDIUse=2 WtCom= 0.00D+00 WtEn= 1.00D+00
 Coeff-En:   0.000D+00 0.799D+00 0.201D+00
 Coeff:      0.000D+00 0.799D+00 0.201D+00
 Gap=     0.341 Goal=   None    Shift=    0.000
 RMSDP=5.69D-03 MaxDP=4.33D-01 DE= 1.04D+00 OVMax= 3.66D-01

 Cycle   4  Pass 1  IDiag  1:
 RMSU=  1.51D-03    CP:  9.24D-01  2.73D+00 -2.11D-01
 E= -3406.85702933666     Delta-E=       -0.303782993306 Rises=F Damp=F
 DIIS: error= 6.97D-02 at cycle   4 NSaved=   4.
 NSaved= 4 IEnMin= 2 EnMin= -3407.58861412307     IErMin= 2 ErrMin= 9.17D-03
 ErrMax= 6.97D-02  0.00D+00 EMaxC= 1.00D-01 BMatC= 2.17D+00 BMatP= 2.03D-01
 IDIUse=2 WtCom= 0.00D+00 WtEn= 1.00D+00
 EnCoef did     2 forward-backward iterations
 Coeff-En:   0.515D-01 0.000D+00 0.441D+00 0.508D+00
 Coeff:      0.515D-01 0.000D+00 0.441D+00 0.508D+00
 Gap=     0.132 Goal=   None    Shift=    0.000
 RMSDP=2.42D-03 MaxDP=1.94D-01 DE=-3.04D-01 OVMax= 2.63D-01

 Cycle   5  Pass 1  IDiag  1:
 RMSU=  8.95D-04    CP:  9.61D-01  1.51D+00  1.56D-01  5.17D-01
 E= -3408.09816748605     Delta-E=       -1.241138149391 Rises=F Damp=F
 DIIS: error= 7.80D-03 at cycle   5 NSaved=   5.
 NSaved= 5 IEnMin= 5 EnMin= -3408.09816748605     IErMin= 5 ErrMin= 7.80D-03
 ErrMax= 7.80D-03  0.00D+00 EMaxC= 1.00D-01 BMatC= 4.62D-02 BMatP= 2.03D-01
 IDIUse=3 WtCom= 9.22D-01 WtEn= 7.80D-02
 Coeff-Com: -0.485D+00 0.632D+00 0.639D-01-0.333D-01 0.823D+00
 Coeff-En:   0.000D+00 0.000D+00 0.000D+00 0.000D+00 0.100D+01
 Coeff:     -0.447D+00 0.583D+00 0.589D-01-0.307D-01 0.836D+00
 Gap=     0.166 Goal=   None    Shift=    0.000
 RMSDP=6.70D-04 MaxDP=4.90D-02 DE=-1.24D+00 OVMax= 2.52D-02

 Cycle   6  Pass 1  IDiag  1:
 RMSU=  4.23D-04    CP:  9.54D-01  1.95D+00  1.90D-01  4.20D-01  8.90D-01
 E= -3408.13677308751     Delta-E=       -0.038605601458 Rises=F Damp=F
 DIIS: error= 4.43D-03 at cycle   6 NSaved=   6.
 NSaved= 6 IEnMin= 6 EnMin= -3408.13677308751     IErMin= 6 ErrMin= 4.43D-03
 ErrMax= 4.43D-03  0.00D+00 EMaxC= 1.00D-01 BMatC= 1.16D-02 BMatP= 4.62D-02
 IDIUse=3 WtCom= 9.56D-01 WtEn= 4.43D-02
 Coeff-Com: -0.348D+00 0.465D+00 0.261D-01-0.547D-01 0.512D+00 0.400D+00
 Coeff-En:   0.000D+00 0.000D+00 0.000D+00 0.000D+00 0.130D-01 0.987D+00
 Coeff:     -0.333D+00 0.444D+00 0.250D-01-0.522D-01 0.490D+00 0.426D+00
 Gap=     0.161 Goal=   None    Shift=    0.000
 RMSDP=2.70D-04 MaxDP=1.86D-02 DE=-3.86D-02 OVMax= 2.39D-02

 Cycle   7  Pass 1  IDiag  1:
 RMSU=  1.01D-04    CP:  9.56D-01  1.93D+00  1.81D-01  3.82D-01  9.71D-01
                    CP:  4.63D-01
 E= -3408.14755821300     Delta-E=       -0.010785125491 Rises=F Damp=F
 DIIS: error= 6.06D-04 at cycle   7 NSaved=   7.
 NSaved= 7 IEnMin= 7 EnMin= -3408.14755821300     IErMin= 7 ErrMin= 6.06D-04
 ErrMax= 6.06D-04  0.00D+00 EMaxC= 1.00D-01 BMatC= 3.87D-04 BMatP= 1.16D-02
 IDIUse=3 WtCom= 9.94D-01 WtEn= 6.06D-03
 Coeff-Com: -0.966D-01 0.128D+00 0.697D-02-0.217D-01 0.137D+00 0.195D+00
 Coeff-Com:  0.652D+00
 Coeff-En:   0.000D+00 0.000D+00 0.000D+00 0.000D+00 0.000D+00 0.000D+00
 Coeff-En:   0.100D+01
 Coeff:     -0.960D-01 0.127D+00 0.693D-02-0.216D-01 0.136D+00 0.194D+00
 Coeff:      0.654D+00
 Gap=     0.160 Goal=   None    Shift=    0.000
 RMSDP=5.64D-05 MaxDP=4.76D-03 DE=-1.08D-02 OVMax= 4.72D-03

 Cycle   8  Pass 1  IDiag  1:
 RMSU=  3.88D-05    CP:  9.55D-01  1.93D+00  1.79D-01  3.88D-01  9.68D-01
                    CP:  5.36D-01  7.82D-01
 E= -3408.14784426998     Delta-E=       -0.000286056984 Rises=F Damp=F
 DIIS: error= 3.52D-04 at cycle   8 NSaved=   8.
 NSaved= 8 IEnMin= 8 EnMin= -3408.14784426998     IErMin= 8 ErrMin= 3.52D-04
 ErrMax= 3.52D-04  0.00D+00 EMaxC= 1.00D-01 BMatC= 1.10D-04 BMatP= 3.87D-04
 IDIUse=3 WtCom= 9.96D-01 WtEn= 3.52D-03
 Coeff-Com:  0.658D-02-0.110D-01 0.360D-03-0.490D-02-0.113D-01 0.455D-01
 Coeff-Com:  0.404D+00 0.571D+00
 Coeff-En:   0.000D+00 0.000D+00 0.000D+00 0.000D+00 0.000D+00 0.000D+00
 Coeff-En:   0.218D-01 0.978D+00
 Coeff:      0.656D-02-0.110D-01 0.359D-03-0.488D-02-0.112D-01 0.453D-01
 Coeff:      0.403D+00 0.572D+00
 Gap=     0.160 Goal=   None    Shift=    0.000
 RMSDP=2.47D-05 MaxDP=2.16D-03 DE=-2.86D-04 OVMax= 2.47D-03

 Cycle   9  Pass 1  IDiag  1:
 RMSU=  1.82D-05    CP:  9.55D-01  1.93D+00  1.79D-01  3.87D-01  9.73D-01
                    CP:  5.33D-01  8.81D-01  6.85D-01
 E= -3408.14793343560     Delta-E=       -0.000089165611 Rises=F Damp=F
 DIIS: error= 1.11D-04 at cycle   9 NSaved=   9.
 NSaved= 9 IEnMin= 9 EnMin= -3408.14793343560     IErMin= 9 ErrMin= 1.11D-04
 ErrMax= 1.11D-04  0.00D+00 EMaxC= 1.00D-01 BMatC= 9.94D-06 BMatP= 1.10D-04
 IDIUse=3 WtCom= 9.99D-01 WtEn= 1.11D-03
 Coeff-Com:  0.145D-01-0.206D-01-0.413D-03-0.856D-03-0.219D-01 0.308D-02
 Coeff-Com:  0.151D+00 0.331D+00 0.544D+00
 Coeff-En:   0.000D+00 0.000D+00 0.000D+00 0.000D+00 0.000D+00 0.000D+00
 Coeff-En:   0.000D+00 0.000D+00 0.100D+01
 Coeff:      0.145D-01-0.205D-01-0.413D-03-0.855D-03-0.219D-01 0.308D-02
 Coeff:      0.151D+00 0.331D+00 0.545D+00
 Gap=     0.160 Goal=   None    Shift=    0.000
 RMSDP=1.04D-05 MaxDP=9.39D-04 DE=-8.92D-05 OVMax= 8.77D-04

 Cycle  10  Pass 1  IDiag  1:
 RMSU=  7.66D-06    CP:  9.55D-01  1.93D+00  1.79D-01  3.89D-01  9.74D-01
                    CP:  5.39D-01  8.73D-01  7.95D-01  7.61D-01
 E= -3408.14794298185     Delta-E=       -0.000009546255 Rises=F Damp=F
 DIIS: error= 2.56D-05 at cycle  10 NSaved=  10.
 NSaved=10 IEnMin=10 EnMin= -3408.14794298185     IErMin=10 ErrMin= 2.56D-05
 ErrMax= 2.56D-05  0.00D+00 EMaxC= 1.00D-01 BMatC= 9.12D-07 BMatP= 9.94D-06
 IDIUse=1 WtCom= 1.00D+00 WtEn= 0.00D+00
 Coeff-Com:  0.553D-02-0.746D-02-0.318D-03 0.194D-03-0.880D-02-0.620D-02
 Coeff-Com:  0.713D-02 0.706D-01 0.298D+00 0.641D+00
 Coeff:      0.553D-02-0.746D-02-0.318D-03 0.194D-03-0.880D-02-0.620D-02
 Coeff:      0.713D-02 0.706D-01 0.298D+00 0.641D+00
 Gap=     0.160 Goal=   None    Shift=    0.000
 RMSDP=3.51D-06 MaxDP=1.52D-04 DE=-9.55D-06 OVMax= 2.87D-04

 Cycle  11  Pass 1  IDiag  1:
 RMSU=  2.20D-06    CP:  9.55D-01  1.93D+00  1.78D-01  3.89D-01  9.74D-01
                    CP:  5.39D-01  8.76D-01  7.96D-01  8.75D-01  8.60D-01
 E= -3408.14794390424     Delta-E=       -0.000000922391 Rises=F Damp=F
 DIIS: error= 2.94D-05 at cycle  11 NSaved=  11.
 NSaved=11 IEnMin=11 EnMin= -3408.14794390424     IErMin=10 ErrMin= 2.56D-05
 ErrMax= 2.94D-05  0.00D+00 EMaxC= 1.00D-01 BMatC= 3.28D-07 BMatP= 9.12D-07
 IDIUse=1 WtCom= 1.00D+00 WtEn= 0.00D+00
 Coeff-Com:  0.134D-02-0.167D-02-0.216D-03 0.223D-03-0.238D-02-0.352D-02
 Coeff-Com: -0.115D-01 0.452D-02 0.111D+00 0.362D+00 0.540D+00
 Coeff:      0.134D-02-0.167D-02-0.216D-03 0.223D-03-0.238D-02-0.352D-02
 Coeff:     -0.115D-01 0.452D-02 0.111D+00 0.362D+00 0.540D+00
 Gap=     0.160 Goal=   None    Shift=    0.000
 RMSDP=1.33D-06 MaxDP=5.09D-05 DE=-9.22D-07 OVMax= 1.20D-04

 Cycle  12  Pass 1  IDiag  1:
 RMSU=  8.62D-07    CP:  9.55D-01  1.93D+00  1.78D-01  3.88D-01  9.74D-01
                    CP:  5.39D-01  8.79D-01  8.03D-01  8.81D-01  9.04D-01
                    CP:  7.63D-01
 E= -3408.14794413464     Delta-E=       -0.000000230400 Rises=F Damp=F
 DIIS: error= 1.67D-05 at cycle  12 NSaved=  12.
 NSaved=12 IEnMin=12 EnMin= -3408.14794413464     IErMin=12 ErrMin= 1.67D-05
 ErrMax= 1.67D-05  0.00D+00 EMaxC= 1.00D-01 BMatC= 8.88D-08 BMatP= 3.28D-07
 IDIUse=1 WtCom= 1.00D+00 WtEn= 0.00D+00
 Coeff-Com: -0.135D-03 0.259D-03-0.118D-03 0.118D-03 0.817D-04-0.851D-03
 Coeff-Com: -0.694D-02-0.645D-02 0.241D-01 0.123D+00 0.280D+00 0.587D+00
 Coeff:     -0.135D-03 0.259D-03-0.118D-03 0.118D-03 0.817D-04-0.851D-03
 Coeff:     -0.694D-02-0.645D-02 0.241D-01 0.123D+00 0.280D+00 0.587D+00
 Gap=     0.160 Goal=   None    Shift=    0.000
 RMSDP=7.85D-07 MaxDP=5.49D-05 DE=-2.30D-07 OVMax= 7.96D-05

 Cycle  13  Pass 1  IDiag  1:
 RMSU=  4.15D-07    CP:  9.55D-01  1.93D+00  1.78D-01  3.89D-01  9.74D-01
                    CP:  5.39D-01  8.78D-01  8.06D-01  8.91D-01  9.18D-01
                    CP:  8.76D-01  1.06D+00
 E= -3408.14794419635     Delta-E=       -0.000000061711 Rises=F Damp=F
 DIIS: error= 6.79D-06 at cycle  13 NSaved=  13.
 NSaved=13 IEnMin=13 EnMin= -3408.14794419635     IErMin=13 ErrMin= 6.79D-06
 ErrMax= 6.79D-06  0.00D+00 EMaxC= 1.00D-01 BMatC= 1.68D-08 BMatP= 8.88D-08
 IDIUse=1 WtCom= 1.00D+00 WtEn= 0.00D+00
 Coeff-Com: -0.441D-03 0.580D-03-0.258D-04 0.237D-04 0.747D-03 0.668D-03
 Coeff-Com:  0.164D-04-0.401D-02-0.191D-01-0.424D-01-0.280D-01 0.293D+00
 Coeff-Com:  0.799D+00
 Coeff:     -0.441D-03 0.580D-03-0.258D-04 0.237D-04 0.747D-03 0.668D-03
 Coeff:      0.164D-04-0.401D-02-0.191D-01-0.424D-01-0.280D-01 0.293D+00
 Coeff:      0.799D+00
 Gap=     0.160 Goal=   None    Shift=    0.000
 RMSDP=6.39D-07 MaxDP=4.41D-05 DE=-6.17D-08 OVMax= 9.07D-05

 Cycle  14  Pass 1  IDiag  1:
 RMSU=  2.17D-07    CP:  9.55D-01  1.93D+00  1.78D-01  3.89D-01  9.74D-01
                    CP:  5.39D-01  8.78D-01  8.07D-01  8.97D-01  9.38D-01
                    CP:  9.48D-01  1.40D+00  1.23D+00
 E= -3408.14794421720     Delta-E=       -0.000000020849 Rises=F Damp=F
 DIIS: error= 1.67D-06 at cycle  14 NSaved=  14.
 NSaved=14 IEnMin=14 EnMin= -3408.14794421720     IErMin=14 ErrMin= 1.67D-06
 ErrMax= 1.67D-06  0.00D+00 EMaxC= 1.00D-01 BMatC= 8.52D-10 BMatP= 1.68D-08
 IDIUse=1 WtCom= 1.00D+00 WtEn= 0.00D+00
 Coeff-Com: -0.129D-03 0.151D-03 0.140D-04-0.137D-04 0.247D-03 0.463D-03
 Coeff-Com:  0.163D-02-0.984D-04-0.132D-01-0.475D-01-0.830D-01-0.160D-01
 Coeff-Com:  0.373D+00 0.785D+00
 Coeff:     -0.129D-03 0.151D-03 0.140D-04-0.137D-04 0.247D-03 0.463D-03
 Coeff:      0.163D-02-0.984D-04-0.132D-01-0.475D-01-0.830D-01-0.160D-01
 Coeff:      0.373D+00 0.785D+00
 Gap=     0.160 Goal=   None    Shift=    0.000
 RMSDP=2.99D-07 MaxDP=2.51D-05 DE=-2.08D-08 OVMax= 5.91D-05

 Cycle  15  Pass 1  IDiag  1:
 RMSU=  1.05D-07    CP:  9.55D-01  1.93D+00  1.78D-01  3.89D-01  9.74D-01
                    CP:  5.39D-01  8.78D-01  8.08D-01  9.00D-01  9.45D-01
                    CP:  9.99D-01  1.59D+00  1.56D+00  1.23D+00
 E= -3408.14794422157     Delta-E=       -0.000000004366 Rises=F Damp=F
 DIIS: error= 1.24D-06 at cycle  15 NSaved=  15.
 NSaved=15 IEnMin=15 EnMin= -3408.14794422157     IErMin=15 ErrMin= 1.24D-06
 ErrMax= 1.24D-06  0.00D+00 EMaxC= 1.00D-01 BMatC= 7.12D-10 BMatP= 8.52D-10
 IDIUse=1 WtCom= 1.00D+00 WtEn= 0.00D+00
 Coeff-Com:  0.206D-04-0.337D-04 0.185D-04-0.180D-04-0.311D-04 0.958D-04
 Coeff-Com:  0.816D-03 0.637D-03-0.326D-02-0.168D-01-0.379D-01-0.718D-01
 Coeff-Com:  0.122D-01 0.408D+00 0.708D+00
 Coeff:      0.206D-04-0.337D-04 0.185D-04-0.180D-04-0.311D-04 0.958D-04
 Coeff:      0.816D-03 0.637D-03-0.326D-02-0.168D-01-0.379D-01-0.718D-01
 Coeff:      0.122D-01 0.408D+00 0.708D+00
 Gap=     0.160 Goal=   None    Shift=    0.000
 RMSDP=1.58D-07 MaxDP=1.22D-05 DE=-4.37D-09 OVMax= 3.24D-05

 Cycle  16  Pass 1  IDiag  1:
 RMSU=  5.19D-08    CP:  9.55D-01  1.93D+00  1.78D-01  3.89D-01  9.74D-01
                    CP:  5.39D-01  8.78D-01  8.08D-01  9.01D-01  9.46D-01
                    CP:  1.02D+00  1.71D+00  1.73D+00  1.55D+00  1.14D+00
 E= -3408.14794422315     Delta-E=       -0.000000001581 Rises=F Damp=F
 DIIS: error= 1.04D-06 at cycle  16 NSaved=  16.
 NSaved=16 IEnMin=16 EnMin= -3408.14794422315     IErMin=16 ErrMin= 1.04D-06
 ErrMax= 1.04D-06  0.00D+00 EMaxC= 1.00D-01 BMatC= 3.40D-10 BMatP= 7.12D-10
 IDIUse=1 WtCom= 1.00D+00 WtEn= 0.00D+00
 Coeff-Com:  0.483D-04-0.620D-04 0.828D-05-0.739D-05-0.860D-04-0.104D-03
 Coeff-Com: -0.145D-03 0.222D-03 0.226D-02 0.729D-02 0.112D-01-0.215D-01
 Coeff-Com: -0.116D+00-0.104D+00 0.315D+00 0.907D+00
 Coeff:      0.483D-04-0.620D-04 0.828D-05-0.739D-05-0.860D-04-0.104D-03
 Coeff:     -0.145D-03 0.222D-03 0.226D-02 0.729D-02 0.112D-01-0.215D-01
 Coeff:     -0.116D+00-0.104D+00 0.315D+00 0.907D+00
 Gap=     0.160 Goal=   None    Shift=    0.000
 RMSDP=1.19D-07 MaxDP=9.20D-06 DE=-1.58D-09 OVMax= 2.39D-05

 Cycle  17  Pass 1  IDiag  1:
 RMSU=  2.53D-08    CP:  9.55D-01  1.93D+00  1.78D-01  3.89D-01  9.74D-01
                    CP:  5.39D-01  8.78D-01  8.08D-01  9.01D-01  9.47D-01
                    CP:  1.03D+00  1.78D+00  1.86D+00  1.75D+00  1.51D+00
                    CP:  1.20D+00
 E= -3408.14794422358     Delta-E=       -0.000000000427 Rises=F Damp=F
 DIIS: error= 2.89D-07 at cycle  17 NSaved=  17.
 NSaved=17 IEnMin=17 EnMin= -3408.14794422358     IErMin=17 ErrMin= 2.89D-07
 ErrMax= 2.89D-07  0.00D+00 EMaxC= 1.00D-01 BMatC= 4.76D-11 BMatP= 3.40D-10
 IDIUse=1 WtCom= 1.00D+00 WtEn= 0.00D+00
 Coeff-Com:  0.222D-04-0.276D-04 0.166D-05-0.942D-06-0.374D-04-0.732D-04
 Coeff-Com: -0.220D-03-0.530D-05 0.174D-02 0.736D-02 0.147D-01 0.528D-02
 Coeff-Com: -0.672D-01-0.163D+00-0.534D-02 0.531D+00 0.676D+00
 Coeff:      0.222D-04-0.276D-04 0.166D-05-0.942D-06-0.374D-04-0.732D-04
 Coeff:     -0.220D-03-0.530D-05 0.174D-02 0.736D-02 0.147D-01 0.528D-02
 Coeff:     -0.672D-01-0.163D+00-0.534D-02 0.531D+00 0.676D+00
 Gap=     0.160 Goal=   None    Shift=    0.000
 RMSDP=4.88D-08 MaxDP=3.69D-06 DE=-4.27D-10 OVMax= 9.76D-06

 Cycle  18  Pass 1  IDiag  1:
 RMSU=  1.18D-08    CP:  9.55D-01  1.93D+00  1.78D-01  3.89D-01  9.74D-01
                    CP:  5.39D-01  8.78D-01  8.08D-01  9.02D-01  9.47D-01
                    CP:  1.04D+00  1.81D+00  1.91D+00  1.85D+00  1.66D+00
                    CP:  1.40D+00  8.34D-01
 E= -3408.14794422377     Delta-E=       -0.000000000189 Rises=F Damp=F
 DIIS: error= 6.23D-08 at cycle  18 NSaved=  18.
 NSaved=18 IEnMin=18 EnMin= -3408.14794422377     IErMin=18 ErrMin= 6.23D-08
 ErrMax= 6.23D-08  0.00D+00 EMaxC= 1.00D-01 BMatC= 3.68D-12 BMatP= 4.76D-11
 IDIUse=1 WtCom= 1.00D+00 WtEn= 0.00D+00
 Coeff-Com:  0.374D-05-0.420D-05 0.197D-06 0.405D-07-0.544D-05-0.204D-04
 Coeff-Com: -0.734D-04-0.261D-04 0.476D-03 0.250D-02 0.572D-02 0.460D-02
 Coeff-Com: -0.200D-01-0.696D-01-0.425D-01 0.162D+00 0.364D+00 0.592D+00
 Coeff:      0.374D-05-0.420D-05 0.197D-06 0.405D-07-0.544D-05-0.204D-04
 Coeff:     -0.734D-04-0.261D-04 0.476D-03 0.250D-02 0.572D-02 0.460D-02
 Coeff:     -0.200D-01-0.696D-01-0.425D-01 0.162D+00 0.364D+00 0.592D+00
 Gap=     0.160 Goal=   None    Shift=    0.000
 RMSDP=1.03D-08 MaxDP=7.20D-07 DE=-1.89D-10 OVMax= 1.87D-06

 Cycle  19  Pass 1  IDiag  1:
 RMSU=  4.36D-09    CP:  9.55D-01  1.93D+00  1.78D-01  3.89D-01  9.74D-01
                    CP:  5.39D-01  8.78D-01  8.08D-01  9.02D-01  9.47D-01
                    CP:  1.04D+00  1.82D+00  1.92D+00  1.87D+00  1.68D+00
                    CP:  1.43D+00  9.32D-01  8.34D-01
 E= -3408.14794422378     Delta-E=       -0.000000000015 Rises=F Damp=F
 DIIS: error= 2.13D-08 at cycle  19 NSaved=  19.
 NSaved=19 IEnMin=19 EnMin= -3408.14794422378     IErMin=19 ErrMin= 2.13D-08
 ErrMax= 2.13D-08  0.00D+00 EMaxC= 1.00D-01 BMatC= 6.11D-13 BMatP= 3.68D-12
 IDIUse=1 WtCom= 1.00D+00 WtEn= 0.00D+00
 Coeff-Com: -0.574D-06 0.940D-06-0.278D-07 0.620D-07 0.166D-05-0.242D-05
 Coeff-Com: -0.115D-04-0.109D-04 0.480D-04 0.518D-03 0.145D-02 0.174D-02
 Coeff-Com: -0.377D-02-0.208D-01-0.230D-01 0.345D-01 0.135D+00 0.342D+00
 Coeff-Com:  0.532D+00
 Coeff:     -0.574D-06 0.940D-06-0.278D-07 0.620D-07 0.166D-05-0.242D-05
 Coeff:     -0.115D-04-0.109D-04 0.480D-04 0.518D-03 0.145D-02 0.174D-02
 Coeff:     -0.377D-02-0.208D-01-0.230D-01 0.345D-01 0.135D+00 0.342D+00
 Coeff:      0.532D+00
 Gap=     0.160 Goal=   None    Shift=    0.000
 RMSDP=2.45D-09 MaxDP=1.24D-07 DE=-1.46D-11 OVMax= 2.66D-07

 SCF Done:  E(RPBE1PBE) =  -3408.14794422     A.U. after   19 cycles
            NFock= 19  Conv=0.24D-08     -V/T= 2.0054
 KE= 3.389952864888D+03 PE=-1.949219619602D+04 EE= 6.959281998490D+03
 Leave Link  502 at Fri Sep 29 19:33:29 2023, MaxMem=  4026531840 cpu:            3293.1 elap:             111.8
 (Enter /sw/arch/RHEL8/EB_production/2022/software/Gaussian/g16.c02/l508.exe)
 QCSCF skips out because SCF is already converged.
 Leave Link  508 at Fri Sep 29 19:33:29 2023, MaxMem=  4026531840 cpu:               0.0 elap:               0.0
 (Enter /sw/arch/RHEL8/EB_production/2022/software/Gaussian/g16.c02/l601.exe)
 Copying SCF densities to generalized density rwf, IOpCl= 0 IROHF=0.

 **********************************************************************

            Population analysis using the SCF Density.

 **********************************************************************

 Alpha  occ. eigenvalues -- -256.35240 -77.20094 -77.18414 -30.12738 -25.97571
 Alpha  occ. eigenvalues --  -25.95714 -25.95669 -19.28392 -19.27796 -10.28417
 Alpha  occ. eigenvalues --  -10.28041 -10.28010 -10.27902 -10.26024 -10.25064
 Alpha  occ. eigenvalues --  -10.24844 -10.24774 -10.24536 -10.24492 -10.24344
 Alpha  occ. eigenvalues --  -10.24325 -10.24209 -10.24147 -10.24123 -10.24093
 Alpha  occ. eigenvalues --  -10.23922 -10.23885 -10.23789 -10.23611 -10.23459
 Alpha  occ. eigenvalues --  -10.23366 -10.23264 -10.23122 -10.22967 -10.22955
 Alpha  occ. eigenvalues --  -10.22758 -10.22709 -10.22694 -10.22679 -10.22641
 Alpha  occ. eigenvalues --  -10.22346 -10.22243 -10.22103  -6.61102  -6.59375
 Alpha  occ. eigenvalues --   -4.75165  -4.75136  -4.74626  -4.73448  -4.73414
 Alpha  occ. eigenvalues --   -4.72881  -3.45933  -2.24915  -2.20198  -2.20123
 Alpha  occ. eigenvalues --   -1.14078  -1.13556  -0.92392  -0.90379  -0.87759
 Alpha  occ. eigenvalues --   -0.87020  -0.81979  -0.81494  -0.81351  -0.79245
 Alpha  occ. eigenvalues --   -0.78844  -0.78320  -0.76930  -0.75921  -0.75220
 Alpha  occ. eigenvalues --   -0.73919  -0.72965  -0.72829  -0.72122  -0.70052
 Alpha  occ. eigenvalues --   -0.69487  -0.66426  -0.65678  -0.62607  -0.62020
 Alpha  occ. eigenvalues --   -0.61575  -0.61467  -0.60214  -0.59131  -0.57226
 Alpha  occ. eigenvalues --   -0.56771  -0.56446  -0.56002  -0.55694  -0.55399
 Alpha  occ. eigenvalues --   -0.55106  -0.55026  -0.54067  -0.52542  -0.51598
 Alpha  occ. eigenvalues --   -0.49930  -0.49454  -0.48297  -0.47769  -0.47643
 Alpha  occ. eigenvalues --   -0.47374  -0.46110  -0.45337  -0.45024  -0.44510
 Alpha  occ. eigenvalues --   -0.44325  -0.43628  -0.43338  -0.43197  -0.42677
 Alpha  occ. eigenvalues --   -0.42477  -0.42255  -0.42169  -0.41860  -0.41724
 Alpha  occ. eigenvalues --   -0.41701  -0.41346  -0.41128  -0.40497  -0.40358
 Alpha  occ. eigenvalues --   -0.40114  -0.39797  -0.39392  -0.39334  -0.38907
 Alpha  occ. eigenvalues --   -0.38586  -0.38102  -0.37642  -0.37387  -0.37228
 Alpha  occ. eigenvalues --   -0.37002  -0.36564  -0.35531  -0.35222  -0.35035
 Alpha  occ. eigenvalues --   -0.33426  -0.32545  -0.29854  -0.29431  -0.28859
 Alpha  occ. eigenvalues --   -0.28561  -0.28255  -0.27133  -0.26976  -0.26339
 Alpha  occ. eigenvalues --   -0.25881  -0.25319  -0.25246  -0.25022  -0.24485
 Alpha  occ. eigenvalues --   -0.22274  -0.22024  -0.22010  -0.18247
 Alpha virt. eigenvalues --   -0.02218  -0.00845  -0.00533  -0.00440   0.00009
 Alpha virt. eigenvalues --    0.00287   0.00418   0.01270   0.03463   0.04518
 Alpha virt. eigenvalues --    0.05645   0.05987   0.06466   0.07005   0.07059
 Alpha virt. eigenvalues --    0.07341   0.07526   0.08140   0.08419   0.09361
 Alpha virt. eigenvalues --    0.09507   0.09832   0.10015   0.10523   0.11164
 Alpha virt. eigenvalues --    0.11349   0.11369   0.11682   0.12179   0.12661
 Alpha virt. eigenvalues --    0.12863   0.13070   0.13222   0.13696   0.13934
 Alpha virt. eigenvalues --    0.14119   0.14487   0.14636   0.15060   0.15219
 Alpha virt. eigenvalues --    0.15876   0.16122   0.16694   0.16826   0.16882
 Alpha virt. eigenvalues --    0.17040   0.17758   0.17879   0.18353   0.18501
 Alpha virt. eigenvalues --    0.18811   0.19469   0.19957   0.20539   0.21040
 Alpha virt. eigenvalues --    0.21258   0.21803   0.22267   0.23056   0.23931
 Alpha virt. eigenvalues --    0.24131   0.25160   0.25430   0.25683   0.26356
 Alpha virt. eigenvalues --    0.26728   0.28053   0.28475   0.29022   0.29430
 Alpha virt. eigenvalues --    0.30034   0.30364   0.30990   0.31400   0.31610
 Alpha virt. eigenvalues --    0.32016   0.32231   0.32875   0.33136   0.33269
 Alpha virt. eigenvalues --    0.33957   0.34297   0.34886   0.35049   0.35812
 Alpha virt. eigenvalues --    0.36472   0.37251   0.38074   0.38741   0.39187
 Alpha virt. eigenvalues --    0.39763   0.40863   0.41170   0.41314   0.41880
 Alpha virt. eigenvalues --    0.42432   0.42617   0.43116   0.43296   0.43804
 Alpha virt. eigenvalues --    0.44080   0.44416   0.44927   0.45229   0.45538
 Alpha virt. eigenvalues --    0.45871   0.46006   0.46717   0.46741   0.47504
 Alpha virt. eigenvalues --    0.48168   0.48318   0.48656   0.48925   0.49179
 Alpha virt. eigenvalues --    0.49451   0.49851   0.50144   0.50299   0.50802
 Alpha virt. eigenvalues --    0.51030   0.51883   0.52208   0.52465   0.52801
 Alpha virt. eigenvalues --    0.52999   0.53449   0.53587   0.54267   0.54534
 Alpha virt. eigenvalues --    0.55099   0.55174   0.55804   0.56143   0.56924
 Alpha virt. eigenvalues --    0.57225   0.57504   0.57696   0.58790   0.59544
 Alpha virt. eigenvalues --    0.59707   0.60026   0.60503   0.61138   0.61552
 Alpha virt. eigenvalues --    0.62090   0.62540   0.63188   0.63839   0.64038
 Alpha virt. eigenvalues --    0.64904   0.65106   0.65584   0.65721   0.66186
 Alpha virt. eigenvalues --    0.66795   0.67527   0.67779   0.68011   0.68129
 Alpha virt. eigenvalues --    0.68529   0.69046   0.69415   0.69489   0.69845
 Alpha virt. eigenvalues --    0.70018   0.70058   0.70506   0.70729   0.70786
 Alpha virt. eigenvalues --    0.70945   0.71296   0.71500   0.71636   0.72047
 Alpha virt. eigenvalues --    0.72497   0.72580   0.73058   0.73263   0.73632
 Alpha virt. eigenvalues --    0.73769   0.74100   0.74194   0.74467   0.74658
 Alpha virt. eigenvalues --    0.75105   0.75219   0.75680   0.76088   0.76355
 Alpha virt. eigenvalues --    0.76535   0.76897   0.77138   0.77207   0.77639
 Alpha virt. eigenvalues --    0.78124   0.78136   0.78640   0.78964   0.79268
 Alpha virt. eigenvalues --    0.79548   0.79592   0.80158   0.80446   0.80611
 Alpha virt. eigenvalues --    0.81126   0.81240   0.81723   0.82016   0.82648
 Alpha virt. eigenvalues --    0.83101   0.83768   0.84347   0.84688   0.85087
 Alpha virt. eigenvalues --    0.85302   0.85684   0.86098   0.86569   0.87217
 Alpha virt. eigenvalues --    0.87436   0.87693   0.88936   0.89286   0.89538
 Alpha virt. eigenvalues --    0.89827   0.90188   0.91145   0.91191   0.91606
 Alpha virt. eigenvalues --    0.93213   0.93490   0.94631   0.94937   0.95206
 Alpha virt. eigenvalues --    0.95746   0.96422   0.96925   0.97669   0.98805
 Alpha virt. eigenvalues --    0.99484   0.99622   1.00941   1.01328   1.02441
 Alpha virt. eigenvalues --    1.03187   1.04142   1.04201   1.05913   1.06592
 Alpha virt. eigenvalues --    1.07848   1.08101   1.09281   1.10944   1.11436
 Alpha virt. eigenvalues --    1.12622   1.13096   1.13390   1.14399   1.14604
 Alpha virt. eigenvalues --    1.15426   1.16302   1.17104   1.18682   1.19651
 Alpha virt. eigenvalues --    1.21056   1.21371   1.22560   1.23514   1.24734
 Alpha virt. eigenvalues --    1.25411   1.26118   1.26541   1.26886   1.27371
 Alpha virt. eigenvalues --    1.28276   1.28918   1.29060   1.29967   1.31268
 Alpha virt. eigenvalues --    1.32072   1.32390   1.32869   1.34123   1.34610
 Alpha virt. eigenvalues --    1.36304   1.37141   1.38192   1.38404   1.39467
 Alpha virt. eigenvalues --    1.41032   1.41620   1.42408   1.43382   1.43640
 Alpha virt. eigenvalues --    1.43983   1.45453   1.46529   1.46949   1.47121
 Alpha virt. eigenvalues --    1.47428   1.48071   1.49702   1.50061   1.50450
 Alpha virt. eigenvalues --    1.51260   1.51702   1.55434   1.57329   1.57991
 Alpha virt. eigenvalues --    1.58307   1.59083   1.59485   1.60760   1.63186
 Alpha virt. eigenvalues --    1.63922   1.65504   1.67261   1.67369   1.69259
 Alpha virt. eigenvalues --    1.71093   1.74037   1.75675   1.75829   1.76544
 Alpha virt. eigenvalues --    1.77586   1.78217   1.79060   1.79891   1.80057
 Alpha virt. eigenvalues --    1.81084   1.82439   1.82887   1.83886   1.84287
 Alpha virt. eigenvalues --    1.84718   1.85321   1.86235   1.87370   1.88187
 Alpha virt. eigenvalues --    1.88739   1.89510   1.90811   1.91159   1.92005
 Alpha virt. eigenvalues --    1.92390   1.93375   1.93517   1.93993   1.94374
 Alpha virt. eigenvalues --    1.94997   1.95641   1.96007   1.96760   1.97463
 Alpha virt. eigenvalues --    1.97983   1.98256   1.98839   2.01192   2.02526
 Alpha virt. eigenvalues --    2.02782   2.03763   2.04410   2.04780   2.06303
 Alpha virt. eigenvalues --    2.06696   2.07261   2.07847   2.08649   2.09537
 Alpha virt. eigenvalues --    2.09575   2.09970   2.10691   2.11751   2.12513
 Alpha virt. eigenvalues --    2.13776   2.14035   2.14509   2.15216   2.15668
 Alpha virt. eigenvalues --    2.15865   2.16626   2.17395   2.18196   2.18907
 Alpha virt. eigenvalues --    2.19940   2.20067   2.22155   2.23451   2.24003
 Alpha virt. eigenvalues --    2.24489   2.24799   2.25566   2.25911   2.26478
 Alpha virt. eigenvalues --    2.26759   2.27735   2.28115   2.28480   2.28668
 Alpha virt. eigenvalues --    2.29600   2.30231   2.30796   2.31038   2.31365
 Alpha virt. eigenvalues --    2.32236   2.32678   2.33389   2.34346   2.36327
 Alpha virt. eigenvalues --    2.36563   2.39606   2.40475   2.40654   2.41882
 Alpha virt. eigenvalues --    2.42183   2.44350   2.47491   2.48803   2.48943
 Alpha virt. eigenvalues --    2.48964   2.49634   2.50107   2.51239   2.51581
 Alpha virt. eigenvalues --    2.51904   2.53540   2.53899   2.55220   2.55907
 Alpha virt. eigenvalues --    2.59051   2.60471   2.61154   2.63427   2.66172
 Alpha virt. eigenvalues --    2.66476   2.67629   2.68677   2.69230   2.70047
 Alpha virt. eigenvalues --    2.71746   2.72377   2.75210   2.75427   2.76022
 Alpha virt. eigenvalues --    2.77515   2.78352   2.78588   2.79178   2.80206
 Alpha virt. eigenvalues --    2.83674   2.85434   2.88201   2.88598   2.89285
 Alpha virt. eigenvalues --    2.90229   2.91732   2.93544   2.96277   2.97033
 Alpha virt. eigenvalues --    2.97327   2.98243   3.00731   3.02792   3.05232
 Alpha virt. eigenvalues --    3.05668   3.10065   3.11029   3.32491   3.33231
 Alpha virt. eigenvalues --    3.36486   3.37166   3.58172   3.60414
          Condensed to atoms (all electrons):
 Mulliken charges:
               1
     1  P    0.394365
     2  P    0.273002
     3  C   -0.315514
     4  C   -0.327126
     5  C   -0.173457
     6  C   -0.009592
     7  C   -0.092964
     8  C   -0.044324
     9  C   -0.083656
    10  H    0.160053
    11  H    0.133616
    12  H    0.171323
    13  H    0.135247
    14  H    0.111767
    15  C   -0.083557
    16  C   -0.144773
    17  C   -0.031853
    18  C   -0.189721
    19  C   -0.092148
    20  C   -0.073053
    21  H    0.123133
    22  C   -0.089840
    23  C   -0.077853
    24  C   -0.149314
    25  C   -0.107209
    26  C   -0.051751
    27  C   -0.141214
    28  H    0.125347
    29  Fe  -0.222637
    30  C   -0.085308
    31  C   -0.067971
    32  C   -0.101961
    33  C   -0.101566
    34  C   -0.093529
    35  H    0.115007
    36  H    0.141217
    37  H    0.127829
    38  H    0.113057
    39  H    0.093222
    40  H    0.090132
    41  H    0.109030
    42  H    0.103932
    43  H    0.115790
    44  C    0.018028
    45  C   -0.160253
    46  O   -0.233751
    47  C   -0.141374
    48  H    0.119556
    49  C    0.037416
    50  H    0.110304
    51  H    0.122578
    52  C   -0.023313
    53  C   -0.158854
    54  O   -0.236033
    55  C   -0.136543
    56  H    0.129337
    57  C    0.032837
    58  H    0.105766
    59  H    0.118719
    60  C   -0.320829
    61  H    0.126825
    62  H    0.173687
    63  H    0.164171
    64  C   -0.327813
    65  H    0.144737
    66  H    0.133720
    67  H    0.174461
    68  H    0.078345
    69  H    0.089363
    70  H    0.078158
    71  H    0.095575
 Sum of Mulliken charges =  -0.00000
 Mulliken charges with hydrogens summed into heavy atoms:
               1
     1  P    0.394365
     2  P    0.273002
     3  C   -0.155460
     4  C    0.113061
     5  C   -0.173457
     6  C   -0.009592
     7  C    0.010969
     8  C    0.064706
     9  C    0.028111
    15  C    0.009665
    16  C   -0.066616
    17  C   -0.031853
    18  C   -0.189721
    19  C    0.030985
    20  C    0.022522
    22  C    0.000292
    23  C    0.011510
    24  C   -0.023967
    25  C   -0.107209
    26  C   -0.051751
    27  C   -0.062868
    29  Fe  -0.222637
    30  C    0.029698
    31  C    0.047819
    32  C    0.039256
    33  C    0.026262
    34  C    0.019529
    44  C    0.018028
    45  C   -0.040697
    46  O   -0.233751
    47  C   -0.031070
    49  C    0.159994
    52  C   -0.023313
    53  C   -0.029517
    54  O   -0.236033
    55  C   -0.030777
    57  C    0.151557
    60  C    0.143853
    64  C    0.125104
 Electronic spatial extent (au):  <R**2>=          19265.5273
 Charge=             -0.0000 electrons
 Dipole moment (field-independent basis, Debye):
    X=              1.8951    Y=             -0.7598    Z=              2.1994  Tot=              3.0010
 Quadrupole moment (field-independent basis, Debye-Ang):
   XX=           -245.3306   YY=           -235.4035   ZZ=           -236.3410
   XY=              5.3271   XZ=             -4.1409   YZ=              3.0356
 Traceless Quadrupole moment (field-independent basis, Debye-Ang):
   XX=             -6.3056   YY=              3.6215   ZZ=              2.6840
   XY=              5.3271   XZ=             -4.1409   YZ=              3.0356
 Octapole moment (field-independent basis, Debye-Ang**2):
  XXX=            627.7620  YYY=            445.8806  ZZZ=           -107.1824  XYY=            183.1388
  XXY=            134.3554  XXZ=            -29.9697  XZZ=            194.6696  YZZ=            128.6560
  YYZ=             -5.2816  XYZ=            -41.6329
 Hexadecapole moment (field-independent basis, Debye-Ang**3):
 XXXX=         -13201.0839 YYYY=          -7429.7849 ZZZZ=          -4802.8147 XXXY=           -617.8248
 XXXZ=            938.9761 YYYX=           -956.6785 YYYZ=           -505.4744 ZZZX=            803.2013
 ZZZY=           -508.1224 XXYY=          -3561.0397 XXZZ=          -2943.7747 YYZZ=          -2066.6835
 XXYZ=           -195.2554 YYXZ=            417.8549 ZZXY=           -226.1675
 N-N= 5.734813388422D+03 E-N=-1.949219620548D+04  KE= 3.389952864888D+03
 No NMR shielding tensors so no spin-rotation constants.
 Leave Link  601 at Fri Sep 29 19:33:29 2023, MaxMem=  4026531840 cpu:               4.0 elap:               0.3
 (Enter /sw/arch/RHEL8/EB_production/2022/software/Gaussian/g16.c02/l607.exe)
 ******************************Gaussian NBO Version 3.1******************************
             N A T U R A L   A T O M I C   O R B I T A L   A N D
          N A T U R A L   B O N D   O R B I T A L   A N A L Y S I S
 ******************************Gaussian NBO Version 3.1******************************
       /RESON  / : Allow strongly delocalized NBO set

 Analyzing the SCF density

 Job title: Cisa                                                            

 Storage needed:   1198974 in NPA,   1584485 in NBO (4026505073 available)


 NATURAL POPULATIONS:  Natural atomic orbital occupancies 
                                                          
   NAO  Atom  No  lang   Type(AO)    Occupancy      Energy
 ----------------------------------------------------------
     1    P    1  S      Cor( 1S)     1.99999     -76.17475
     2    P    1  S      Cor( 2S)     1.99835      -7.40955
     3    P    1  S      Val( 3S)     1.27547      -0.38924
     4    P    1  S      Ryd( 4S)     0.00453       0.70562
     5    P    1  px     Cor( 2p)     1.99981      -4.74059
     6    P    1  px     Val( 3p)     1.20487      -0.08830
     7    P    1  px     Ryd( 4p)     0.00603       0.87858
     8    P    1  py     Cor( 2p)     1.99975      -4.74205
     9    P    1  py     Val( 3p)     0.70653      -0.03548
    10    P    1  py     Ryd( 4p)     0.00588       0.75073
    11    P    1  pz     Cor( 2p)     1.99975      -4.74121
    12    P    1  pz     Val( 3p)     0.91183      -0.05396
    13    P    1  pz     Ryd( 4p)     0.00710       0.75054
    14    P    1  dxy    Ryd( 3d)     0.00492       0.96640
    15    P    1  dxz    Ryd( 3d)     0.00514       1.09360
    16    P    1  dyz    Ryd( 3d)     0.00834       1.15903
    17    P    1  dx2y2  Ryd( 3d)     0.00537       1.17139
    18    P    1  dz2    Ryd( 3d)     0.00289       1.01861
 
    19    P    2  S      Cor( 1S)     1.99999     -76.30325
    20    P    2  S      Cor( 2S)     1.99880      -7.26497
    21    P    2  S      Val( 3S)     1.26644      -0.38595
    22    P    2  S      Ryd( 4S)     0.00536       0.71914
    23    P    2  px     Cor( 2p)     1.99976      -4.72485
    24    P    2  px     Val( 3p)     0.78682      -0.03382
    25    P    2  px     Ryd( 4p)     0.00422       0.87007
    26    P    2  py     Cor( 2p)     1.99980      -4.72402
    27    P    2  py     Val( 3p)     1.02624      -0.06189
    28    P    2  py     Ryd( 4p)     0.00524       0.87357
    29    P    2  pz     Cor( 2p)     1.99982      -4.72401
    30    P    2  pz     Val( 3p)     1.07675      -0.07460
    31    P    2  pz     Ryd( 4p)     0.00463       0.84226
    32    P    2  dxy    Ryd( 3d)     0.00761       1.13516
    33    P    2  dxz    Ryd( 3d)     0.00412       0.99083
    34    P    2  dyz    Ryd( 3d)     0.00316       1.07212
    35    P    2  dx2y2  Ryd( 3d)     0.00306       1.04432
    36    P    2  dz2    Ryd( 3d)     0.00500       1.14580
 
    37    C    3  S      Cor( 1S)     1.99899     -10.11846
    38    C    3  S      Val( 2S)     0.98480      -0.22730
    39    C    3  S      Ryd( 3S)     0.00451       1.03328
    40    C    3  px     Val( 2p)     1.14527      -0.12387
    41    C    3  px     Ryd( 3p)     0.00335       0.77908
    42    C    3  py     Val( 2p)     1.14175      -0.13368
    43    C    3  py     Ryd( 3p)     0.00570       0.80425
    44    C    3  pz     Val( 2p)     1.22580      -0.10508
    45    C    3  pz     Ryd( 3p)     0.00372       0.82575
    46    C    3  dxy    Ryd( 3d)     0.00123       2.17317
    47    C    3  dxz    Ryd( 3d)     0.00065       2.19222
    48    C    3  dyz    Ryd( 3d)     0.00057       2.00475
    49    C    3  dx2y2  Ryd( 3d)     0.00083       2.14625
    50    C    3  dz2    Ryd( 3d)     0.00122       2.16346
 
    51    C    4  S      Cor( 1S)     1.99926     -10.09704
    52    C    4  S      Val( 2S)     1.06369      -0.22357
    53    C    4  S      Ryd( 3S)     0.00074       0.95907
    54    C    4  px     Val( 2p)     1.22699      -0.07903
    55    C    4  px     Ryd( 3p)     0.00386       0.76571
    56    C    4  py     Val( 2p)     1.09781      -0.07023
    57    C    4  py     Ryd( 3p)     0.00235       0.61420
    58    C    4  pz     Val( 2p)     1.22666      -0.07904
    59    C    4  pz     Ryd( 3p)     0.00263       0.69266
    60    C    4  dxy    Ryd( 3d)     0.00076       2.11565
    61    C    4  dxz    Ryd( 3d)     0.00040       2.02090
    62    C    4  dyz    Ryd( 3d)     0.00036       1.95589
    63    C    4  dx2y2  Ryd( 3d)     0.00050       2.09490
    64    C    4  dz2    Ryd( 3d)     0.00086       2.17649
 
    65    C    5  S      Cor( 1S)     1.99853     -10.10553
    66    C    5  S      Val( 2S)     0.93346      -0.19441
    67    C    5  S      Ryd( 3S)     0.00507       0.91797
    68    C    5  px     Val( 2p)     1.09243      -0.11624
    69    C    5  px     Ryd( 3p)     0.00723       0.82432
    70    C    5  py     Val( 2p)     1.14850      -0.16357
    71    C    5  py     Ryd( 3p)     0.00944       1.04998
    72    C    5  pz     Val( 2p)     1.18876      -0.14917
    73    C    5  pz     Ryd( 3p)     0.00654       0.89645
    74    C    5  dxy    Ryd( 3d)     0.00080       2.28788
    75    C    5  dxz    Ryd( 3d)     0.00089       2.24452
    76    C    5  dyz    Ryd( 3d)     0.00112       2.14598
    77    C    5  dx2y2  Ryd( 3d)     0.00107       2.14432
    78    C    5  dz2    Ryd( 3d)     0.00074       2.15046
 
    79    C    6  S      Cor( 1S)     1.99859     -10.11219
    80    C    6  S      Val( 2S)     0.83221      -0.12052
    81    C    6  S      Ryd( 3S)     0.00563       0.93876
    82    C    6  px     Val( 2p)     1.03688      -0.11006
    83    C    6  px     Ryd( 3p)     0.00874       1.08103
    84    C    6  py     Val( 2p)     1.06835      -0.08857
    85    C    6  py     Ryd( 3p)     0.00669       0.92563
    86    C    6  pz     Val( 2p)     1.07272      -0.09649
    87    C    6  pz     Ryd( 3p)     0.00580       0.87780
    88    C    6  dxy    Ryd( 3d)     0.00100       2.32305
    89    C    6  dxz    Ryd( 3d)     0.00089       2.29998
    90    C    6  dyz    Ryd( 3d)     0.00065       2.21869
    91    C    6  dx2y2  Ryd( 3d)     0.00086       2.20266
    92    C    6  dz2    Ryd( 3d)     0.00116       2.10265
 
    93    C    7  S      Cor( 1S)     1.99866     -10.10364
    94    C    7  S      Val( 2S)     0.93240      -0.15452
    95    C    7  S      Ryd( 3S)     0.00293       0.82299
    96    C    7  px     Val( 2p)     1.04429      -0.08338
    97    C    7  px     Ryd( 3p)     0.00487       0.73228
    98    C    7  py     Val( 2p)     1.19721      -0.08374
    99    C    7  py     Ryd( 3p)     0.00423       0.96474
   100    C    7  pz     Val( 2p)     1.03728      -0.09750
   101    C    7  pz     Ryd( 3p)     0.00580       0.68912
   102    C    7  dxy    Ryd( 3d)     0.00086       2.22310
   103    C    7  dxz    Ryd( 3d)     0.00063       2.25122
   104    C    7  dyz    Ryd( 3d)     0.00081       2.20619
   105    C    7  dx2y2  Ryd( 3d)     0.00087       2.17409
   106    C    7  dz2    Ryd( 3d)     0.00097       2.07768
 
   107    C    8  S      Cor( 1S)     1.99867     -10.10724
   108    C    8  S      Val( 2S)     0.94408      -0.16272
   109    C    8  S      Ryd( 3S)     0.00264       0.82512
   110    C    8  px     Val( 2p)     1.12719      -0.07638
   111    C    8  px     Ryd( 3p)     0.00491       0.81411
   112    C    8  py     Val( 2p)     1.06124      -0.07306
   113    C    8  py     Ryd( 3p)     0.00535       0.64481
   114    C    8  pz     Val( 2p)     1.07016      -0.10585
   115    C    8  pz     Ryd( 3p)     0.00657       0.78174
   116    C    8  dxy    Ryd( 3d)     0.00066       2.22167
   117    C    8  dxz    Ryd( 3d)     0.00104       2.12822
   118    C    8  dyz    Ryd( 3d)     0.00087       2.20120
   119    C    8  dx2y2  Ryd( 3d)     0.00090       2.12527
   120    C    8  dz2    Ryd( 3d)     0.00081       2.13412
 
   121    C    9  S      Cor( 1S)     1.99863     -10.10136
   122    C    9  S      Val( 2S)     0.93526      -0.15707
   123    C    9  S      Ryd( 3S)     0.00312       0.84390
   124    C    9  px     Val( 2p)     1.14507      -0.07891
   125    C    9  px     Ryd( 3p)     0.00492       0.84820
   126    C    9  py     Val( 2p)     1.09380      -0.09241
   127    C    9  py     Ryd( 3p)     0.00774       0.86476
   128    C    9  pz     Val( 2p)     1.02195      -0.09017
   129    C    9  pz     Ryd( 3p)     0.00605       0.64474
   130    C    9  dxy    Ryd( 3d)     0.00099       2.15345
   131    C    9  dxz    Ryd( 3d)     0.00061       2.23309
   132    C    9  dyz    Ryd( 3d)     0.00067       2.29092
   133    C    9  dx2y2  Ryd( 3d)     0.00083       2.24567
   134    C    9  dz2    Ryd( 3d)     0.00105       1.99601
 
   135    H   10  S      Val( 1S)     0.72133       0.09897
   136    H   10  S      Ryd( 2S)     0.00391       0.60763
 
   137    H   11  S      Val( 1S)     0.78170       0.08226
   138    H   11  S      Ryd( 2S)     0.00220       0.47549
 
   139    H   12  S      Val( 1S)     0.76483       0.09649
   140    H   12  S      Ryd( 2S)     0.00148       0.50133
 
   141    H   13  S      Val( 1S)     0.78195       0.08593
   142    H   13  S      Ryd( 2S)     0.00187       0.49509
 
   143    H   14  S      Val( 1S)     0.74077       0.11214
   144    H   14  S      Ryd( 2S)     0.00147       0.39769
 
   145    C   15  S      Cor( 1S)     1.99893     -10.10191
   146    C   15  S      Val( 2S)     0.94098      -0.13437
   147    C   15  S      Ryd( 3S)     0.00119       0.59260
   148    C   15  px     Val( 2p)     0.98802      -0.09919
   149    C   15  px     Ryd( 3p)     0.00111       0.60034
   150    C   15  py     Val( 2p)     1.11227      -0.03995
   151    C   15  py     Ryd( 3p)     0.00481       0.78520
   152    C   15  pz     Val( 2p)     1.14529      -0.05038
   153    C   15  pz     Ryd( 3p)     0.00549       0.90452
   154    C   15  dxy    Ryd( 3d)     0.00060       1.92138
   155    C   15  dxz    Ryd( 3d)     0.00052       1.91784
   156    C   15  dyz    Ryd( 3d)     0.00087       2.32257
   157    C   15  dx2y2  Ryd( 3d)     0.00049       2.24327
   158    C   15  dz2    Ryd( 3d)     0.00065       2.24517
 
   159    C   16  S      Cor( 1S)     1.99888     -10.09464
   160    C   16  S      Val( 2S)     0.92965      -0.12453
   161    C   16  S      Ryd( 3S)     0.00151       0.59380
   162    C   16  px     Val( 2p)     1.02175      -0.10029
   163    C   16  px     Ryd( 3p)     0.00117       0.60484
   164    C   16  py     Val( 2p)     1.09580      -0.03991
   165    C   16  py     Ryd( 3p)     0.00409       0.78120
   166    C   16  pz     Val( 2p)     1.16009      -0.05245
   167    C   16  pz     Ryd( 3p)     0.00595       0.96504
   168    C   16  dxy    Ryd( 3d)     0.00057       1.95308
   169    C   16  dxz    Ryd( 3d)     0.00043       1.89854
   170    C   16  dyz    Ryd( 3d)     0.00077       2.34197
   171    C   16  dx2y2  Ryd( 3d)     0.00050       2.28976
   172    C   16  dz2    Ryd( 3d)     0.00073       2.21868
 
   173    C   17  S      Cor( 1S)     1.99881     -10.10695
   174    C   17  S      Val( 2S)     0.85253      -0.10044
   175    C   17  S      Ryd( 3S)     0.00169       0.62344
   176    C   17  px     Val( 2p)     0.96683      -0.09238
   177    C   17  px     Ryd( 3p)     0.00186       0.70220
   178    C   17  py     Val( 2p)     1.08511      -0.05874
   179    C   17  py     Ryd( 3p)     0.00756       1.09816
   180    C   17  pz     Val( 2p)     1.09841      -0.05254
   181    C   17  pz     Ryd( 3p)     0.00330       0.89236
   182    C   17  dxy    Ryd( 3d)     0.00077       1.94545
   183    C   17  dxz    Ryd( 3d)     0.00060       2.01005
   184    C   17  dyz    Ryd( 3d)     0.00094       2.44498
   185    C   17  dx2y2  Ryd( 3d)     0.00055       2.23623
   186    C   17  dz2    Ryd( 3d)     0.00068       2.33783
 
   187    C   18  S      Cor( 1S)     1.99881     -10.10345
   188    C   18  S      Val( 2S)     0.93068      -0.16417
   189    C   18  S      Ryd( 3S)     0.00422       0.71812
   190    C   18  px     Val( 2p)     1.08188      -0.11722
   191    C   18  px     Ryd( 3p)     0.00226       0.78130
   192    C   18  py     Val( 2p)     1.14352      -0.08966
   193    C   18  py     Ryd( 3p)     0.00868       0.92621
   194    C   18  pz     Val( 2p)     1.17387      -0.11884
   195    C   18  pz     Ryd( 3p)     0.00718       1.02036
   196    C   18  dxy    Ryd( 3d)     0.00057       1.94268
   197    C   18  dxz    Ryd( 3d)     0.00049       1.97700
   198    C   18  dyz    Ryd( 3d)     0.00104       2.28021
   199    C   18  dx2y2  Ryd( 3d)     0.00057       2.29274
   200    C   18  dz2    Ryd( 3d)     0.00095       2.31732
 
   201    C   19  S      Cor( 1S)     1.99890     -10.09506
   202    C   19  S      Val( 2S)     0.93104      -0.12475
   203    C   19  S      Ryd( 3S)     0.00222       0.69658
   204    C   19  px     Val( 2p)     0.96585      -0.09356
   205    C   19  px     Ryd( 3p)     0.00246       0.70750
   206    C   19  py     Val( 2p)     1.09364      -0.03949
   207    C   19  py     Ryd( 3p)     0.00468       0.77917
   208    C   19  pz     Val( 2p)     1.17808      -0.05607
   209    C   19  pz     Ryd( 3p)     0.00821       1.00051
   210    C   19  dxy    Ryd( 3d)     0.00060       1.97796
   211    C   19  dxz    Ryd( 3d)     0.00047       1.90399
   212    C   19  dyz    Ryd( 3d)     0.00074       2.38912
   213    C   19  dx2y2  Ryd( 3d)     0.00052       2.31811
   214    C   19  dz2    Ryd( 3d)     0.00074       2.21568
 
   215    C   20  S      Cor( 1S)     1.99891     -10.09476
   216    C   20  S      Val( 2S)     0.93808      -0.12775
   217    C   20  S      Ryd( 3S)     0.00133       0.64463
   218    C   20  px     Val( 2p)     1.00649      -0.09422
   219    C   20  px     Ryd( 3p)     0.00156       0.63772
   220    C   20  py     Val( 2p)     1.19459      -0.05050
   221    C   20  py     Ryd( 3p)     0.00654       1.04941
   222    C   20  pz     Val( 2p)     1.07012      -0.03532
   223    C   20  pz     Ryd( 3p)     0.00422       0.67144
   224    C   20  dxy    Ryd( 3d)     0.00045       1.85197
   225    C   20  dxz    Ryd( 3d)     0.00056       2.02894
   226    C   20  dyz    Ryd( 3d)     0.00067       2.36339
   227    C   20  dx2y2  Ryd( 3d)     0.00069       2.13361
   228    C   20  dz2    Ryd( 3d)     0.00069       2.33940
 
   229    H   21  S      Val( 1S)     0.75424       0.11184
   230    H   21  S      Ryd( 2S)     0.00264       0.43021
 
   231    C   22  S      Cor( 1S)     1.99894     -10.09312
   232    C   22  S      Val( 2S)     0.93872      -0.12654
   233    C   22  S      Ryd( 3S)     0.00123       0.59211
   234    C   22  px     Val( 2p)     1.16199      -0.04406
   235    C   22  px     Ryd( 3p)     0.00571       0.96430
   236    C   22  py     Val( 2p)     1.04500      -0.07674
   237    C   22  py     Ryd( 3p)     0.00247       0.66714
   238    C   22  pz     Val( 2p)     1.06293      -0.04940
   239    C   22  pz     Ryd( 3p)     0.00357       0.67374
   240    C   22  dxy    Ryd( 3d)     0.00062       1.99995
   241    C   22  dxz    Ryd( 3d)     0.00064       2.22861
   242    C   22  dyz    Ryd( 3d)     0.00052       2.22572
   243    C   22  dx2y2  Ryd( 3d)     0.00060       2.11834
   244    C   22  dz2    Ryd( 3d)     0.00069       2.10540
 
   245    C   23  S      Cor( 1S)     1.99893     -10.09240
   246    C   23  S      Val( 2S)     0.93808      -0.12439
   247    C   23  S      Ryd( 3S)     0.00112       0.60162
   248    C   23  px     Val( 2p)     1.14672      -0.04028
   249    C   23  px     Ryd( 3p)     0.00575       0.91034
   250    C   23  py     Val( 2p)     1.03079      -0.07344
   251    C   23  py     Ryd( 3p)     0.00203       0.62992
   252    C   23  pz     Val( 2p)     1.08815      -0.05379
   253    C   23  pz     Ryd( 3p)     0.00390       0.76793
   254    C   23  dxy    Ryd( 3d)     0.00056       2.05826
   255    C   23  dxz    Ryd( 3d)     0.00081       2.18521
   256    C   23  dyz    Ryd( 3d)     0.00050       2.20874
   257    C   23  dx2y2  Ryd( 3d)     0.00067       2.16156
   258    C   23  dz2    Ryd( 3d)     0.00058       2.08024
 
   259    C   24  S      Cor( 1S)     1.99889     -10.08834
   260    C   24  S      Val( 2S)     0.92365      -0.11686
   261    C   24  S      Ryd( 3S)     0.00197       0.63598
   262    C   24  px     Val( 2p)     1.07714      -0.03496
   263    C   24  px     Ryd( 3p)     0.00421       0.79232
   264    C   24  py     Val( 2p)     1.06605      -0.07969
   265    C   24  py     Ryd( 3p)     0.00317       0.78173
   266    C   24  pz     Val( 2p)     1.13300      -0.06314
   267    C   24  pz     Ryd( 3p)     0.00575       0.93537
   268    C   24  dxy    Ryd( 3d)     0.00061       2.13529
   269    C   24  dxz    Ryd( 3d)     0.00066       2.28618
   270    C   24  dyz    Ryd( 3d)     0.00063       2.09664
   271    C   24  dx2y2  Ryd( 3d)     0.00056       2.24457
   272    C   24  dz2    Ryd( 3d)     0.00054       2.02766
 
   273    C   25  S      Cor( 1S)     1.99884     -10.10168
   274    C   25  S      Val( 2S)     0.93068      -0.15809
   275    C   25  S      Ryd( 3S)     0.00376       0.67348
   276    C   25  px     Val( 2p)     1.19358      -0.12398
   277    C   25  px     Ryd( 3p)     0.00959       1.06303
   278    C   25  py     Val( 2p)     1.08127      -0.10844
   279    C   25  py     Ryd( 3p)     0.00261       0.82184
   280    C   25  pz     Val( 2p)     1.10833      -0.08342
   281    C   25  pz     Ryd( 3p)     0.00386       0.84177
   282    C   25  dxy    Ryd( 3d)     0.00094       2.02745
   283    C   25  dxz    Ryd( 3d)     0.00084       2.23985
   284    C   25  dyz    Ryd( 3d)     0.00056       2.23222
   285    C   25  dx2y2  Ryd( 3d)     0.00062       2.16684
   286    C   25  dz2    Ryd( 3d)     0.00082       2.11279
 
   287    C   26  S      Cor( 1S)     1.99884     -10.10323
   288    C   26  S      Val( 2S)     0.84759      -0.09655
   289    C   26  S      Ryd( 3S)     0.00149       0.61248
   290    C   26  px     Val( 2p)     1.08809      -0.05588
   291    C   26  px     Ryd( 3p)     0.00627       1.01146
   292    C   26  py     Val( 2p)     1.02944      -0.07910
   293    C   26  py     Ryd( 3p)     0.00226       0.75786
   294    C   26  pz     Val( 2p)     1.06169      -0.06271
   295    C   26  pz     Ryd( 3p)     0.00402       0.92866
   296    C   26  dxy    Ryd( 3d)     0.00077       2.10645
   297    C   26  dxz    Ryd( 3d)     0.00076       2.26804
   298    C   26  dyz    Ryd( 3d)     0.00052       2.23301
   299    C   26  dx2y2  Ryd( 3d)     0.00062       2.20932
   300    C   26  dz2    Ryd( 3d)     0.00075       2.14439
 
   301    C   27  S      Cor( 1S)     1.99889     -10.09074
   302    C   27  S      Val( 2S)     0.92920      -0.11955
   303    C   27  S      Ryd( 3S)     0.00152       0.59403
   304    C   27  px     Val( 2p)     1.07250      -0.03098
   305    C   27  px     Ryd( 3p)     0.00346       0.69932
   306    C   27  py     Val( 2p)     1.06013      -0.08174
   307    C   27  py     Ryd( 3p)     0.00274       0.73198
   308    C   27  pz     Val( 2p)     1.13563      -0.06405
   309    C   27  pz     Ryd( 3p)     0.00500       0.92263
   310    C   27  dxy    Ryd( 3d)     0.00065       2.11644
   311    C   27  dxz    Ryd( 3d)     0.00066       2.27577
   312    C   27  dyz    Ryd( 3d)     0.00064       2.06546
   313    C   27  dx2y2  Ryd( 3d)     0.00056       2.24218
   314    C   27  dz2    Ryd( 3d)     0.00056       2.02142
 
   315    H   28  S      Val( 1S)     0.76456       0.11041
   316    H   28  S      Ryd( 2S)     0.00299       0.46106
 
   317   Fe   29  S      Cor( 1S)     2.00000    -238.22319
   318   Fe   29  S      Cor( 2S)     1.99999     -46.62550
   319   Fe   29  S      Cor( 3S)     1.99697      -4.90956
   320   Fe   29  S      Val( 4S)     0.14230       0.18987
   321   Fe   29  S      Ryd( 5S)     0.00636       0.25948
   322   Fe   29  px     Cor( 2p)     1.99999     -25.75274
   323   Fe   29  px     Cor( 3p)     1.99868      -2.39218
   324   Fe   29  px     Val( 4p)     0.21184       0.34630
   325   Fe   29  py     Cor( 2p)     1.99999     -25.75252
   326   Fe   29  py     Cor( 3p)     1.99881      -2.39200
   327   Fe   29  py     Val( 4p)     0.21608       0.33998
   328   Fe   29  pz     Cor( 2p)     1.99999     -25.75702
   329   Fe   29  pz     Cor( 3p)     1.99849      -2.40002
   330   Fe   29  pz     Val( 4p)     0.22963       0.39313
   331   Fe   29  dxy    Val( 3d)     1.55784      -0.19291
   332   Fe   29  dxy    Ryd( 4d)     0.00189       1.33584
   333   Fe   29  dxz    Val( 3d)     1.62678      -0.21041
   334   Fe   29  dxz    Ryd( 4d)     0.00261       1.29669
   335   Fe   29  dyz    Val( 3d)     1.59278      -0.20608
   336   Fe   29  dyz    Ryd( 4d)     0.00248       1.31061
   337   Fe   29  dx2y2  Val( 3d)     1.31995      -0.16840
   338   Fe   29  dx2y2  Ryd( 4d)     0.00204       1.38864
   339   Fe   29  dz2    Val( 3d)     1.09088      -0.15869
[...]
                                                    240(r)
   151. LP*(   5)Fe  29                  0.83441    -0.13526  146(r),557(r),156(r),555(r)
                                                    359(g),592(r),199(r),598(r)
                                                    398(r),205(r),226(r),365(r)
                                                    371(r),392(r),223(r),217(r)
                                                    232(r),389(r),367(r),394(r)
                                                    383(r),216(r),595(r),370(r)
                                                    204(r),593(r),385(r)
   152. LP*(   6)Fe  29                  0.24254     0.51584  599(r),593(r),156(r),146(r)
                                                    596(r),558(r),600(r),601(r)
                                                    594(r),560(r),602(r),394(r)
                                                    562(r),199(r),403(r),228(r)
                                                    234(r),385(r),559(r),561(r)
                                                    226(r),367(r),207(r),376(r)
                                                    154(g),374(r),235(r),365(r)
                                                    597(r),401(r),392(r),548(r)
                                                    383(r),617(r),217(r),216(r)
                                                    363(r),524(r),372(r),382(r)
                                                    155(g),219(r),399(r),390(r)
                                                    398(r),389(r),407(r),241(r)
                                                    549(r),501(r),214(r),223(r)
                                                    205(r),391(r),625(r),224(r)
                                                    215(r),379(r),231(r),381(r)
                                                    370(r),371(r),552(r),616(r)
                                                    232(r),541(r),555(r),380(r)
                                                    475(r),211(r),242(r),277(r)
                                                    543(r),236(r),397(r)
   153. LP*(   7)Fe  29                  0.20945     0.27738  541(r),592(r),156(r),543(r)
                                                    598(r),557(r),385(r),367(r)
                                                    542(r),403(r),408(r),219(r)
                                                    599(r),559(r),415(r),419(r)
                                                    562(r),594(r),246(r),409(r)
                                                    215(r),602(r),146(r),236(r)
                                                    243(r),233(r),200(r),363(r)
                                                    394(r),591(r),555(r),544(r)
                                                    417(r),382(r),182(r),556(r)
                                                    601(r),197(r),501(r),411(r)
                                                    370(r),205(r),600(r),241(r)
                                                    399(r),389(r)
   154. LP*(   8)Fe  29                  0.20669     0.28168  541(r),555(r),146(r),598(r)
                                                    557(r),376(r),152(g),228(r)
                                                    592(r),156(r),543(r),601(r)
                                                    394(r),544(r),416(r),549(r)
                                                    561(r),367(r),414(r),209(r)
                                                    602(r),596(r),410(r),224(r)
                                                    403(r),242(r),182(r),207(r)
                                                    546(r),554(r),548(r),380(r)
                                                    562(r),390(r),391(r),545(r)
                                                    214(r),399(r),372(r),181(r)
                                                    560(r),236(r),597(r),411(r)
                                                    205(r),197(r),408(r),167(r)
                                                    558(r),379(r),243(r),200(r)
                                                    374(r),246(r),231(r),180(r)
                                                    370(r)
   155. LP*(   9)Fe  29                  0.13091     0.23029  358(g),146(r),156(r),544(r)
                                                    357(g),549(r),205(r),214(r)
                                                    199(r),241(r),223(r),394(r)
                                                    226(r),228(r),398(r),403(r)
                                                    407(r),219(r),389(r),541(r)
                                                    234(r),501(r),232(r),207(r)
                                                    542(r),235(r),385(r),561(r)
                                                    217(r),617(r),550(r),231(r)
   357. RY*(   1)Fe  29                  0.00443     0.60672   
   358. RY*(   2)Fe  29                  0.00060     0.85698   
   359. RY*(   3)Fe  29                  0.00018     1.40735   
   360. RY*(   4)Fe  29                  0.00012     1.41906   
   361. RY*(   5)Fe  29                  0.00004     1.31679   
   362. RY*(   6)Fe  29                  0.00004     1.32343   
       -------------------------------
              Total Lewis   23.52345  ( 90.4782%)
        Valence non-Lewis    2.47017  (  9.5010%)
        Rydberg non-Lewis    0.00542  (  0.0208%)
       -------------------------------
            Total unit  2   25.99904  (100.0000%)
           Charge unit  2    0.00096
 
 Molecular unit  3  (C5H5)
    51. BD (   1) C  30 - C  31          1.96829    -0.64605  152(r),154(r),151(r),602(v)
                                                    599(v),155(r),382(v),400(v)
                                                    594(g),596(g),595(g),593(g)
                                                    153(r),150(r),399(v),146(r)
                                                    199(r)
    52. BD (   2) C  30 - C  31          1.52823    -0.28681  156(v),151(r),154(r),152(r)
                                                    598(v),155(r),146(r),150(r)
                                                    153(r),359(r),595(g),602(v)
                                                    599(v),358(r),555(r),557(r)
                                                    360(r),224(r)
    53. BD (   1) C  30 - C  34          1.95571    -0.65566  156(g),152(r),153(r),155(r)
                                                    596(v),151(r),601(v),391(v)
                                                    150(r),591(g),600(g),602(g)
                                                    373(v),594(g),154(r),372(v)
                                                    146(r),199(r),209(r)
    54. BD (   1) C  30 - H  35          1.98114    -0.53528  153(r),600(v),595(v),154(r)
                                                    152(r),591(g),593(g),155(r)
                                                    357(r),151(r)
    55. BD (   1) C  31 - C  32          1.95408    -0.67004  152(r),154(r),150(r),155(r)
                                                    594(v),601(v),153(r),591(g)
                                                    597(g),599(g),390(v),596(g)
                                                    364(v),363(v),146(r),151(r)
                                                    207(r)
    56. BD (   1) C  31 - H  43          1.98079    -0.53404  154(r),597(v),593(v),152(r)
                                                    591(g),595(g),155(r),357(r)
                                                    153(r)
    57. BD (   1) C  32 - C  33          1.96642    -0.64034  152(r),151(r),155(r),602(v)
                                                    596(v),153(r),373(v),400(v)
                                                    599(g),601(g),595(g),600(g)
                                                    150(r),146(r),419(r)
    58. BD (   2) C  32 - C  33          1.51562    -0.28207  156(v),151(r),152(r),155(r)
                                                    153(r),592(v),146(r),150(r)
                                                    359(r),595(g),154(r),602(v)
                                                    596(v),557(r),358(r),357(r)
                                                    419(r),555(r),209(r),541(r)
                                                    361(r),199(r)
    59. BD (   1) C  32 - H  36          1.97988    -0.52934  153(r),591(v),600(v),152(r)
                                                    597(g),155(r),595(g),374(v)
                                                    154(r),357(r),419(r)
    60. BD (   1) C  33 - C  34          1.95503    -0.65487  156(g),152(r),155(r),150(r)
                                                    599(v),594(v),364(v),597(g)
                                                    151(r),381(v),593(g),154(r)
                                                    602(g),601(g),153(r),146(r)
                                                    242(r)
    61. BD (   1) C  33 - H  37          1.98006    -0.53033  152(r),593(v),595(v),154(r)
                                                    155(r),597(g),600(g),383(v)
                                                    153(r),357(r),242(r),151(r)
    62. BD (   1) C  34 - H  38          1.98066    -0.53595  597(v),152(r),591(v),153(r)
                                                    156(g),155(r),600(g),593(g)
                                                    154(r),365(v),357(r),550(r)
                                                    243(r)
   127. CR (   1) C  30                  1.99866   -10.10758  152(r),153(r),154(r),155(r)
                                                    400(v),373(v),156(v),602(v)
                                                    596(v),408(v),600(v),151(r)
                                                    358(r)
   128. CR (   1) C  31                  1.99866   -10.10669  154(r),152(r),364(v),155(r)
                                                    381(v),599(v),594(v),416(v)
                                                    597(v),150(r),153(r),358(r)
   129. CR (   1) C  32                  1.99866   -10.10305  152(r),153(r),155(r),373(v)
                                                    391(v),409(v),596(v),601(v)
                                                    591(v),154(r),151(r),150(r)
                                                    358(r)
   130. CR (   1) C  33                  1.99867   -10.10394  152(r),155(r),400(v),156(v)
                                                    154(r),602(v),599(v),410(v)
                                                    381(v),593(v),382(v),153(r)
                                                    151(r),358(r)
   131. CR (   1) C  34                  1.99868   -10.10656  152(r),156(g),155(r),153(r)
                                                    364(v),601(v),594(v),390(v)
                                                    411(v),597(v),391(v),591(v)
                                                    600(g),154(r),150(r),358(r)
   156. LP (   1) C  34                  0.98800    -0.12738  146(r),150(r),598(v),592(v)
                                                    152(r),600(g),153(r),593(g)
                                                    155(r),151(r),154(r),399(g)
                                                    601(v),594(v),401(g),391(v)
                                                    393(v),366(v),360(r),361(r)
                                                    557(r),358(r),243(r),200(r)
                                                    362(r),555(r),357(r)
   363. RY*(   1) C  30                  0.00401     0.85701   
   364. RY*(   2) C  30                  0.00364     0.65960   
   365. RY*(   3) C  30                  0.00268     1.19681   
   366. RY*(   4) C  30                  0.00131     1.87973   
   367. RY*(   5) C  30                  0.00092     0.70543   
   368. RY*(   6) C  30                  0.00020     1.95976   
   369. RY*(   7) C  30                  0.00010     2.33864   
   370. RY*(   8) C  30                  0.00006     2.13710   
   371. RY*(   9) C  30                  0.00004     2.07875   
   372. RY*(   1) C  31                  0.00392     0.88277   
   373. RY*(   2) C  31                  0.00359     0.64740   
   374. RY*(   3) C  31                  0.00270     1.19977   
   375. RY*(   4) C  31                  0.00133     1.87352   
   376. RY*(   5) C  31                  0.00091     0.70597   
   377. RY*(   6) C  31                  0.00019     1.96374   
   378. RY*(   7) C  31                  0.00010     2.34013   
   379. RY*(   8) C  31                  0.00005     2.09881   
   380. RY*(   9) C  31                  0.00006     2.12038   
   381. RY*(   1) C  32                  0.00434     0.78424   
   382. RY*(   2) C  32                  0.00382     0.82911   
   383. RY*(   3) C  32                  0.00263     1.25199   
   384. RY*(   4) C  32                  0.00129     1.87905   
   385. RY*(   5) C  32                  0.00093     0.71952   
   386. RY*(   6) C  32                  0.00021     1.99432   
   387. RY*(   7) C  32                  0.00011     2.35488   
   388. RY*(   8) C  32                  0.00009     2.07360   
   389. RY*(   9) C  32                  0.00005     2.18222   
   390. RY*(   1) C  33                  0.00425     0.80619   
   391. RY*(   2) C  33                  0.00379     0.77200   
   392. RY*(   3) C  33                  0.00252     1.22764   
   393. RY*(   4) C  33                  0.00132     1.89209   
   394. RY*(   5) C  33                  0.00093     0.69796   
   395. RY*(   6) C  33                  0.00021     1.97075   
   396. RY*(   7) C  33                  0.00011     2.35284   
   397. RY*(   8) C  33                  0.00008     2.10099   
   398. RY*(   9) C  33                  0.00005     2.16134   
   399. RY*(   1) C  34                  0.00401     0.88480   
   400. RY*(   2) C  34                  0.00362     0.65238   
   401. RY*(   3) C  34                  0.00254     1.23493   
   402. RY*(   4) C  34                  0.00109     1.88082   
   403. RY*(   5) C  34                  0.00094     0.71625   
   404. RY*(   6) C  34                  0.00020     1.97107   
   405. RY*(   7) C  34                  0.00010     2.34402   
   406. RY*(   8) C  34                  0.00008     2.07684   
   407. RY*(   9) C  34                  0.00005     2.15556   
   408. RY*(   1) H  35                  0.00113     0.34978   
   409. RY*(   1) H  36                  0.00280     0.48407   
   410. RY*(   1) H  37                  0.00212     0.40748   
   411. RY*(   1) H  38                  0.00147     0.39162   
   416. RY*(   1) H  43                  0.00114     0.35294   
   591. BD*(   1) C  30 - C  31          0.03047     0.51491   
   592. BD*(   2) C  30 - C  31          0.46757     0.04331  598(v),156(v),557(r),591(g)
                                                    153(r),150(r),363(g),372(g)
                                                    151(r),154(r),555(r),374(g)
                                                    362(r),360(r),604(r),207(r)
   593. BD*(   1) C  30 - C  34          0.02865     0.52230   
   594. BD*(   1) C  30 - H  35          0.01591     0.49166   
   595. BD*(   1) C  31 - C  32          0.01344     0.54165   
   596. BD*(   1) C  31 - H  43          0.01595     0.49261   
   597. BD*(   1) C  32 - C  33          0.03047     0.51489   
   598. BD*(   2) C  32 - C  33          0.47237     0.04416  592(v),156(v),597(g),150(r)
                                                    557(r),154(r),555(r),153(r)
                                                    390(g),381(g),382(g),392(g)
                                                    383(g),361(r),360(r),151(r)
                                                    604(r),362(r),152(r)
   599. BD*(   1) C  32 - H  36          0.01672     0.51021   
   600. BD*(   1) C  33 - C  34          0.03024     0.52620   
   601. BD*(   1) C  33 - H  37          0.01657     0.50259   
   602. BD*(   1) C  34 - H  38          0.01682     0.49239   
       -------------------------------
              Total Lewis   33.72725  ( 96.4840%)
        Valence non-Lewis    1.15519  (  3.3047%)
        Rydberg non-Lewis    0.07387  (  0.2113%)
       -------------------------------
            Total unit  3   34.95631  (100.0000%)
           Charge unit  3    0.04369
 Leave Link  607 at Fri Sep 29 19:33:32 2023, MaxMem=  4026531840 cpu:              29.3 elap:               2.4
 (Enter /sw/arch/RHEL8/EB_production/2022/software/Gaussian/g16.c02/l9999.exe)
 Unable to Open any file for archive entry.
 1\1\GINC-TCN532\SP\RPBE1PBE\def2SVPP\C34H32Fe1O2P2\ADARSH\29-Sep-2023\
 0\\#p pop=nbo pbe1pbe/def2svpp empiricaldispersion=gd3bj integral=grid
 =ultrafinegrid scf=(xqc,maxconventionalcycles=90) nosymm\\Cisa\\0,1\P,
 0,0.14549,0.80908,-0.58508\P,0,-2.66048,-0.75927,-0.06148\C,0,-1.4029,
 -2.15235,0.07016\C,0,-1.88512,-3.54302,0.46707\C,0,0.59748,-0.50918,0.
 54801\C,0,-0.17652,-1.69996,0.81131\C,0,0.50095,-2.41503,1.84273\C,0,1
 .67543,-1.69641,2.20717\C,0,1.74466,-0.52405,1.41158\H,0,-1.11681,-2.2
 1072,-0.99278\H,0,-1.15752,-4.29089,0.10887\H,0,-2.86405,-3.77715,0.02
 054\H,0,-1.97809,-3.66951,1.55225\H,0,2.53196,0.2292,1.43367\C,0,-3.47
 984,1.78766,3.71543\C,0,-3.48166,0.40142,3.85074\C,0,-3.22932,-0.45148
 ,2.7698\C,0,-2.95094,0.13052,1.51296\C,0,-2.95205,1.52998,1.38954\C,0,
 -3.2195,2.35878,2.4739\H,0,-2.72499,1.9726,0.41308\C,0,-6.73583,-2.565
 89,-1.2941\C,0,-6.63201,-1.78406,-0.14685\C,0,-5.39199,-1.27221,0.2251
 4\C,0,-4.24362,-1.53711,-0.53451\C,0,-4.34409,-2.31408,-1.71372\C,0,-5
 .6026,-2.81716,-2.06386\H,0,-5.31642,-0.64989,1.12093\Fe,0,1.71403,-2.
 1538,0.20843\C,0,2.6742,-3.92105,-0.18013\C,0,3.58707,-2.83116,-0.2636
 7\C,0,3.11455,-1.93286,-1.2621\C,0,1.90813,-2.47207,-1.80213\C,0,1.638
 79,-3.70011,-1.13429\H,0,2.74343,-4.76392,0.50779\H,0,3.58322,-0.99012
 ,-1.54641\H,0,1.29417,-2.00932,-2.57527\H,0,0.78266,-4.35205,-1.31094\
 H,0,-3.6896,2.41914,4.58368\H,0,-7.70303,-2.97521,-1.59906\H,0,2.41379
 ,-2.01522,2.94271\H,0,0.2049,-3.3818,2.24731\H,0,4.47405,-2.69139,0.35
 464\C,0,1.59045,1.17007,-1.60069\C,0,2.69358,1.95667,-1.39788\O,0,1.66
 813,0.58189,-2.82327\C,0,3.49966,1.82582,-2.56842\H,0,2.89755,2.55961,
 -0.51392\C,0,2.82264,0.97629,-3.39477\H,0,4.4554,2.30673,-2.77241\H,0,
 3.0255,0.57739,-4.38703\C,0,0.15178,2.22954,0.53126\C,0,0.25851,2.3379
 8,1.8924\O,0,-0.08602,3.4544,-0.00731\C,0,0.08498,3.72175,2.19741\H,0,
 0.42126,1.52027,2.59131\C,0,-0.11824,4.34689,1.00226\H,0,0.11201,4.189
 2,3.18062\H,0,-0.28038,5.38451,0.71601\C,0,-3.26144,-1.93091,3.00254\H
 ,0,-3.81641,-2.16919,3.92357\H,0,-3.7395,-2.47121,2.17021\H,0,-2.23696
 ,-2.32441,3.12505\C,0,-3.17137,-2.61844,-2.60628\H,0,-2.60144,-3.49441
 ,-2.24832\H,0,-3.51291,-2.85451,-3.62707\H,0,-2.46744,-1.76606,-2.6742
 \H,0,-5.69318,-3.41957,-2.97331\H,0,-7.51491,-1.56767,0.46078\H,0,-3.6
 9741,-0.04239,4.82747\H,0,-3.21338,3.44407,2.34584\\Version=ES64L-G16R
 evC.02\HF=-3408.1479442\RMSD=2.448e-09\Dipole=0.7456076,-0.2989443,0.8
 652924\Quadrupole=-4.6880354,2.6925272,1.9955082,3.9605931,-3.0786567,
 2.256878\PG=C01 [X(C34H32Fe1O2P2)]\\@
 The archive entry for this job was punched.


 IF AT FIRST YOU DON'T SUCCEED, TRY, TRY AGAIN.
 THEN GIVE UP;
 THERE'S NO USE BEING A DAMN FOOL ABOUT IT.

                                 -- W. C. FIELDS
 Job cpu time:       0 days  0 hours 56 minutes 38.8 seconds.
 Elapsed time:       0 days  0 hours  1 minutes 58.4 seconds.
 File lengths (MBytes):  RWF=    432 Int=      0 D2E=      0 Chk=     28 Scr=     32
 Normal termination of Gaussian 16 at Fri Sep 29 19:33:32 2023.
