 Entering Gaussian System, Link 0=g16
 Input=free_ligand_L3_SP.inp
 Output=free_ligand_L3_SP.log
 Initial command:
 /sw/arch/Centos8/EB_production/2021/software/Gaussian/g16.c01/l1.exe "/scratch-local/adarsh.3296442/Gau-2870742.inp" -scrdir="/scratch-local/adarsh.3296442/"
 Entering Link 1 = /sw/arch/Centos8/EB_production/2021/software/Gaussian/g16.c01/l1.exe PID=   2870743.
  
 Copyright (c) 1988-2019, Gaussian, Inc.  All Rights Reserved.
  
 This is part of the Gaussian(R) 16 program.  It is based on
 the Gaussian(R) 09 system (copyright 2009, Gaussian, Inc.),
 the Gaussian(R) 03 system (copyright 2003, Gaussian, Inc.),
 the Gaussian(R) 98 system (copyright 1998, Gaussian, Inc.),
 the Gaussian(R) 94 system (copyright 1995, Gaussian, Inc.),
 the Gaussian 92(TM) system (copyright 1992, Gaussian, Inc.),
 the Gaussian 90(TM) system (copyright 1990, Gaussian, Inc.),
 the Gaussian 88(TM) system (copyright 1988, Gaussian, Inc.),
 the Gaussian 86(TM) system (copyright 1986, Carnegie Mellon
 University), and the Gaussian 82(TM) system (copyright 1983,
 Carnegie Mellon University). Gaussian is a federally registered
 trademark of Gaussian, Inc.
  
 This software contains proprietary and confidential information,
 including trade secrets, belonging to Gaussian, Inc.
  
 This software is provided under written license and may be
 used, copied, transmitted, or stored only in accord with that
 written license.
  
 The following legend is applicable only to US Government
 contracts under FAR:
  
                    RESTRICTED RIGHTS LEGEND
  
 Use, reproduction and disclosure by the US Government is
 subject to restrictions as set forth in subparagraphs (a)
 and (c) of the Commercial Computer Software - Restricted
 Rights clause in FAR 52.227-19.
  
 Gaussian, Inc.
 340 Quinnipiac St., Bldg. 40, Wallingford CT 06492
  
  
 ---------------------------------------------------------------
 Warning -- This program may not be used in any manner that
 competes with the business of Gaussian, Inc. or will provide
 assistance to any competitor of Gaussian, Inc.  The licensee
 of this program is prohibited from giving any competitor of
 Gaussian, Inc. access to this program.  By using this program,
 the user acknowledges that Gaussian, Inc. is engaged in the
 business of creating and licensing software in the field of
 computational chemistry and represents and warrants to the
 licensee that it is not a competitor of Gaussian, Inc. and that
 it will not use this program in any manner prohibited above.
 ---------------------------------------------------------------
  

 Cite this work as:
 Gaussian 16, Revision C.01,
 M. J. Frisch, G. W. Trucks, H. B. Schlegel, G. E. Scuseria, 
 M. A. Robb, J. R. Cheeseman, G. Scalmani, V. Barone, 
 G. A. Petersson, H. Nakatsuji, X. Li, M. Caricato, A. V. Marenich, 
 J. Bloino, B. G. Janesko, R. Gomperts, B. Mennucci, H. P. Hratchian, 
 J. V. Ortiz, A. F. Izmaylov, J. L. Sonnenberg, D. Williams-Young, 
 F. Ding, F. Lipparini, F. Egidi, J. Goings, B. Peng, A. Petrone, 
 T. Henderson, D. Ranasinghe, V. G. Zakrzewski, J. Gao, N. Rega, 
 G. Zheng, W. Liang, M. Hada, M. Ehara, K. Toyota, R. Fukuda, 
 J. Hasegawa, M. Ishida, T. Nakajima, Y. Honda, O. Kitao, H. Nakai, 
 T. Vreven, K. Throssell, J. A. Montgomery, Jr., J. E. Peralta, 
 F. Ogliaro, M. J. Bearpark, J. J. Heyd, E. N. Brothers, K. N. Kudin, 
 V. N. Staroverov, T. A. Keith, R. Kobayashi, J. Normand, 
 K. Raghavachari, A. P. Rendell, J. C. Burant, S. S. Iyengar, 
 J. Tomasi, M. Cossi, J. M. Millam, M. Klene, C. Adamo, R. Cammi, 
 J. W. Ochterski, R. L. Martin, K. Morokuma, O. Farkas, 
 J. B. Foresman, and D. J. Fox, Gaussian, Inc., Wallingford CT, 2019.
 
 ******************************************
 Gaussian 16:  ES64L-G16RevC.01  3-Jul-2019
                12-Aug-2023 
 ******************************************
 %nprocshared=32
 Will use up to   32 processors via shared memory.
 %mem=30GB
 %chk=free_ligand_L3.chk
 ----------------------------------------------------------------------
 #p pop=nbo NMR pbe1pbe/def2svpp empiricaldispersion=gd3bj integral=gri
 d=ultrafinegrid scf=(xqc,maxconventionalcycles=90) nosymm
 ----------------------------------------------------------------------
 1/38=1,172=1/1;
 2/12=2,15=1,17=6,18=5,40=1/2;
 3/5=43,7=202,11=2,25=1,30=1,74=-13,75=-5,124=41/1,2,3,8;
 4//1;
 5/5=2,8=3,13=1,38=5,85=90/2,8;
 8/6=1,10=90,11=11/1;
 10/13=100,31=1,45=16/2;
 6/7=2,8=2,9=2,10=2,28=1,40=1,64=1/1,7;
 99/9=1/99;
 Leave Link    1 at Sat Aug 12 03:49:30 2023, MaxMem=  4026531840 cpu:              35.8 elap:               1.2
 (Enter /sw/arch/Centos8/EB_production/2021/software/Gaussian/g16.c01/l101.exe)
 ----
 Cisa
 ----
 Symbolic Z-matrix:
 Charge =  0 Multiplicity = 1
 C                    -4.08025  -0.12936  -1.75438 
 C                    -5.00973  -0.38056  -0.70615 
 C                    -5.35687   0.87233  -0.12728 
 C                    -4.6376    1.89189  -0.81454 
 C                    -3.8445    1.26959  -1.82063 
 H                    -3.63454  -0.87495  -2.40597 
 H                    -5.3885   -1.35515  -0.39932 
 H                    -6.03421   1.02483   0.71325 
 H                    -4.67706   2.95857  -0.59132 
 H                    -3.18032   1.77089  -2.5253 
 Fe                   -3.34567   0.56869   0.05545 
 C                    -2.41281   1.8121    1.36301 
 C                    -1.44987   1.17144   0.52304 
 C                    -1.5374   -0.25397   0.76993 
 C                    -2.64194  -0.45326   1.66553 
 C                    -3.14654   0.81265   2.06202 
 H                    -2.61322   2.88142   1.40775 
 H                    -3.0064   -1.42194   2.0013 
 H                    -3.98327   0.98981   2.73777 
 C                    -0.60412   1.8642   -0.51623 
 H                    -0.70357   1.27784  -1.44694 
 P                    -0.11751  -1.38906   0.65312 
 C                    -1.10741   3.27766  -0.79737 
 H                    -0.65432   3.6842   -1.70601 
 H                    -2.19709   3.25508  -0.9515 
 H                    -0.89708   3.9837    0.01722 
 P                     1.21772   1.69856  -0.14667 
 C                     1.38468   2.31509   1.61822 
 C                     2.80045   2.19788   2.18954 
 C                     3.68056   3.38595   1.81681 
 C                     3.04994   4.7058    2.26246 
 C                     1.60753   4.86815   1.78132 
 C                     0.7692    3.63658   2.09273 
 H                     2.70123   2.16444   3.29142 
 H                     4.67583   3.27279   2.2807 
 H                     3.66444   5.55801   1.92435 
 H                     1.15321   5.75248   2.2606 
 H                    -0.26414   3.75351   1.73843 
 H                     1.58156   5.06962   0.69635 
 H                     0.68846   3.53852   3.19286 
 H                     0.77585   1.51551   2.07464 
 H                     3.26076   1.24096   1.89666 
 H                     3.85183   3.39791   0.72439 
 H                     3.05847   4.73948   3.36844 
 C                     2.22508   2.52097  -1.508 
 C                     1.85187   1.89465  -2.87147 
 C                     0.85674   2.6938   -3.70829 
 C                     1.29506   4.14641  -3.87324 
 C                     1.55419   4.82829  -2.53245 
 C                     2.5166    4.02356  -1.66727 
 H                     2.78838   1.82438  -3.45734 
 H                     0.76882   2.21365  -4.69827 
 H                     0.54442   4.71015  -4.45344 
 H                     1.99005   5.82812  -2.70089 
 H                     2.65389   4.50599  -0.69019 
 H                     0.60708   5.00829  -1.99807 
 H                     3.50885   4.06885  -2.15627 
 H                     3.19697   2.0844   -1.22719 
 H                     1.49417   0.85581  -2.73804 
 H                    -0.15265   2.64427  -3.26552 
 H                     2.22696   4.16828  -4.4703 
 C                    -0.41931  -2.9682   -0.29973 
 C                    -1.71061  -3.76602  -0.07656 
 C                    -2.88967  -3.26062  -0.89497 
 C                    -2.53753  -3.17892  -2.37603 
 C                    -1.32399  -2.27939  -2.58638 
 C                    -0.1294   -2.79541  -1.79901 
 H                    -1.49271  -4.80975  -0.37466 
 H                    -3.75827  -3.92348  -0.7369 
 H                    -3.40219  -2.82633  -2.96516 
 H                    -1.06241  -2.21706  -3.65706 
 H                     0.73835  -2.12372  -1.93966 
 H                    -1.55621  -1.25014  -2.25145 
 H                     0.16074  -3.78545  -2.20129 
 H                     0.40193  -3.571     0.12799 
 H                    -1.97297  -3.81017   0.99189 
 H                    -3.17411  -2.25909  -0.53275 
 H                    -2.30749  -4.19165  -2.75913 
 C                     0.26024  -2.01586   2.39387 
 C                     1.10427  -1.00649   3.18937 
 C                     0.28168  -0.07353   4.068 
 C                    -0.50683  -0.88428   5.08704 
 C                    -1.46811  -1.81911   4.36628 
 C                    -0.78217  -2.69408   3.31256 
 H                     1.78136  -1.58058   3.85167 
 H                     0.95231   0.64583   4.57023 
 H                    -1.06675  -0.22222   5.76956 
 H                    -1.97463  -2.48442   5.08706 
 H                    -1.53998  -3.23886   2.72787 
 H                    -2.25773  -1.20332   3.91118 
 H                    -0.22199  -3.47783   3.8566 
 H                     0.94556  -2.82538   2.08299 
 H                     1.7581   -0.44121   2.49937 
 H                    -0.42342   0.51673   3.45131 
 H                     0.19706  -1.46314   5.71518 
 
 ITRead=  0  0  0  0  0  0  0  0  0  0  0  0  0  0  0  0  0  0  0  0
 ITRead=  0  0  0  0  0  0  0  0  0  0  0  0  0  0  0  0  0  0  0  0
 ITRead=  0  0  0  0  0  0  0  0  0  0  0  0  0  0  0  0  0  0  0  0
 ITRead=  0  0  0  0  0  0  0  0  0  0  0  0  0  0  0  0  0  0  0  0
 ITRead=  0  0  0  0  0  0  0  0  0  0  0  0  0  0  0
 MicOpt= -1 -1 -1 -1 -1 -1 -1 -1 -1 -1 -1 -1 -1 -1 -1 -1 -1 -1 -1 -1
 MicOpt= -1 -1 -1 -1 -1 -1 -1 -1 -1 -1 -1 -1 -1 -1 -1 -1 -1 -1 -1 -1
 MicOpt= -1 -1 -1 -1 -1 -1 -1 -1 -1 -1 -1 -1 -1 -1 -1 -1 -1 -1 -1 -1
 MicOpt= -1 -1 -1 -1 -1 -1 -1 -1 -1 -1 -1 -1 -1 -1 -1 -1 -1 -1 -1 -1
 MicOpt= -1 -1 -1 -1 -1 -1 -1 -1 -1 -1 -1 -1 -1 -1 -1
 NAtoms=     95 NQM=       95 NQMF=       0 NMMI=      0 NMMIF=      0
                NMic=       0 NMicF=      0.
                    Isotopes and Nuclear Properties:
 (Nuclear quadrupole moments (NQMom) in fm**2, nuclear magnetic moments (NMagM)
  in nuclear magnetons)

  Atom         1           2           3           4           5           6           7           8           9          10
 IAtWgt=          12          12          12          12          12           1           1           1           1           1
 AtmWgt=  12.0000000  12.0000000  12.0000000  12.0000000  12.0000000   1.0078250   1.0078250   1.0078250   1.0078250   1.0078250
 NucSpn=           0           0           0           0           0           1           1           1           1           1
 AtZEff=  -0.0000000  -0.0000000  -0.0000000  -0.0000000  -0.0000000  -0.0000000  -0.0000000  -0.0000000  -0.0000000  -0.0000000
 NQMom=    0.0000000   0.0000000   0.0000000   0.0000000   0.0000000   0.0000000   0.0000000   0.0000000   0.0000000   0.0000000
 NMagM=    0.0000000   0.0000000   0.0000000   0.0000000   0.0000000   2.7928460   2.7928460   2.7928460   2.7928460   2.7928460
 AtZNuc=   6.0000000   6.0000000   6.0000000   6.0000000   6.0000000   1.0000000   1.0000000   1.0000000   1.0000000   1.0000000

  Atom        11          12          13          14          15          16          17          18          19          20
 IAtWgt=          56          12          12          12          12          12           1           1           1          12
 AtmWgt=  55.9349393  12.0000000  12.0000000  12.0000000  12.0000000  12.0000000   1.0078250   1.0078250   1.0078250  12.0000000
 NucSpn=           0           0           0           0           0           0           1           1           1           0
 AtZEff=  -0.0000000  -0.0000000  -0.0000000  -0.0000000  -0.0000000  -0.0000000  -0.0000000  -0.0000000  -0.0000000  -0.0000000
 NQMom=    0.0000000   0.0000000   0.0000000   0.0000000   0.0000000   0.0000000   0.0000000   0.0000000   0.0000000   0.0000000
 NMagM=    0.0000000   0.0000000   0.0000000   0.0000000   0.0000000   0.0000000   2.7928460   2.7928460   2.7928460   0.0000000
 AtZNuc=  26.0000000   6.0000000   6.0000000   6.0000000   6.0000000   6.0000000   1.0000000   1.0000000   1.0000000   6.0000000

  Atom        21          22          23          24          25          26          27          28          29          30
 IAtWgt=           1          31          12           1           1           1          31          12          12          12
 AtmWgt=   1.0078250  30.9737634  12.0000000   1.0078250   1.0078250   1.0078250  30.9737634  12.0000000  12.0000000  12.0000000
 NucSpn=           1           1           0           1           1           1           1           0           0           0
 AtZEff=  -0.0000000  -0.0000000  -0.0000000  -0.0000000  -0.0000000  -0.0000000  -0.0000000  -0.0000000  -0.0000000  -0.0000000
 NQMom=    0.0000000   0.0000000   0.0000000   0.0000000   0.0000000   0.0000000   0.0000000   0.0000000   0.0000000   0.0000000
 NMagM=    2.7928460   1.1316000   0.0000000   2.7928460   2.7928460   2.7928460   1.1316000   0.0000000   0.0000000   0.0000000
 AtZNuc=   1.0000000  15.0000000   6.0000000   1.0000000   1.0000000   1.0000000  15.0000000   6.0000000   6.0000000   6.0000000

  Atom        31          32          33          34          35          36          37          38          39          40
 IAtWgt=          12          12          12           1           1           1           1           1           1           1
 AtmWgt=  12.0000000  12.0000000  12.0000000   1.0078250   1.0078250   1.0078250   1.0078250   1.0078250   1.0078250   1.0078250
 NucSpn=           0           0           0           1           1           1           1           1           1           1
 AtZEff=  -0.0000000  -0.0000000  -0.0000000  -0.0000000  -0.0000000  -0.0000000  -0.0000000  -0.0000000  -0.0000000  -0.0000000
 NQMom=    0.0000000   0.0000000   0.0000000   0.0000000   0.0000000   0.0000000   0.0000000   0.0000000   0.0000000   0.0000000
 NMagM=    0.0000000   0.0000000   0.0000000   2.7928460   2.7928460   2.7928460   2.7928460   2.7928460   2.7928460   2.7928460
 AtZNuc=   6.0000000   6.0000000   6.0000000   1.0000000   1.0000000   1.0000000   1.0000000   1.0000000   1.0000000   1.0000000

  Atom        41          42          43          44          45          46          47          48          49          50
 IAtWgt=           1           1           1           1          12          12          12          12          12          12
 AtmWgt=   1.0078250   1.0078250   1.0078250   1.0078250  12.0000000  12.0000000  12.0000000  12.0000000  12.0000000  12.0000000
 NucSpn=           1           1           1           1           0           0           0           0           0           0
 AtZEff=  -0.0000000  -0.0000000  -0.0000000  -0.0000000  -0.0000000  -0.0000000  -0.0000000  -0.0000000  -0.0000000  -0.0000000
 NQMom=    0.0000000   0.0000000   0.0000000   0.0000000   0.0000000   0.0000000   0.0000000   0.0000000   0.0000000   0.0000000
 NMagM=    2.7928460   2.7928460   2.7928460   2.7928460   0.0000000   0.0000000   0.0000000   0.0000000   0.0000000   0.0000000
 AtZNuc=   1.0000000   1.0000000   1.0000000   1.0000000   6.0000000   6.0000000   6.0000000   6.0000000   6.0000000   6.0000000

  Atom        51          52          53          54          55          56          57          58          59          60
 IAtWgt=           1           1           1           1           1           1           1           1           1           1
 AtmWgt=   1.0078250   1.0078250   1.0078250   1.0078250   1.0078250   1.0078250   1.0078250   1.0078250   1.0078250   1.0078250
 NucSpn=           1           1           1           1           1           1           1           1           1           1
 AtZEff=  -0.0000000  -0.0000000  -0.0000000  -0.0000000  -0.0000000  -0.0000000  -0.0000000  -0.0000000  -0.0000000  -0.0000000
 NQMom=    0.0000000   0.0000000   0.0000000   0.0000000   0.0000000   0.0000000   0.0000000   0.0000000   0.0000000   0.0000000
 NMagM=    2.7928460   2.7928460   2.7928460   2.7928460   2.7928460   2.7928460   2.7928460   2.7928460   2.7928460   2.7928460
 AtZNuc=   1.0000000   1.0000000   1.0000000   1.0000000   1.0000000   1.0000000   1.0000000   1.0000000   1.0000000   1.0000000

  Atom        61          62          63          64          65          66          67          68          69          70
 IAtWgt=           1          12          12          12          12          12          12           1           1           1
 AtmWgt=   1.0078250  12.0000000  12.0000000  12.0000000  12.0000000  12.0000000  12.0000000   1.0078250   1.0078250   1.0078250
 NucSpn=           1           0           0           0           0           0           0           1           1           1
 AtZEff=  -0.0000000  -0.0000000  -0.0000000  -0.0000000  -0.0000000  -0.0000000  -0.0000000  -0.0000000  -0.0000000  -0.0000000
 NQMom=    0.0000000   0.0000000   0.0000000   0.0000000   0.0000000   0.0000000   0.0000000   0.0000000   0.0000000   0.0000000
 NMagM=    2.7928460   0.0000000   0.0000000   0.0000000   0.0000000   0.0000000   0.0000000   2.7928460   2.7928460   2.7928460
 AtZNuc=   1.0000000   6.0000000   6.0000000   6.0000000   6.0000000   6.0000000   6.0000000   1.0000000   1.0000000   1.0000000

  Atom        71          72          73          74          75          76          77          78          79          80
 IAtWgt=           1           1           1           1           1           1           1           1          12          12
 AtmWgt=   1.0078250   1.0078250   1.0078250   1.0078250   1.0078250   1.0078250   1.0078250   1.0078250  12.0000000  12.0000000
 NucSpn=           1           1           1           1           1           1           1           1           0           0
 AtZEff=  -0.0000000  -0.0000000  -0.0000000  -0.0000000  -0.0000000  -0.0000000  -0.0000000  -0.0000000  -0.0000000  -0.0000000
 NQMom=    0.0000000   0.0000000   0.0000000   0.0000000   0.0000000   0.0000000   0.0000000   0.0000000   0.0000000   0.0000000
 NMagM=    2.7928460   2.7928460   2.7928460   2.7928460   2.7928460   2.7928460   2.7928460   2.7928460   0.0000000   0.0000000
 AtZNuc=   1.0000000   1.0000000   1.0000000   1.0000000   1.0000000   1.0000000   1.0000000   1.0000000   6.0000000   6.0000000

  Atom        81          82          83          84          85          86          87          88          89          90
 IAtWgt=          12          12          12          12           1           1           1           1           1           1
 AtmWgt=  12.0000000  12.0000000  12.0000000  12.0000000   1.0078250   1.0078250   1.0078250   1.0078250   1.0078250   1.0078250
 NucSpn=           0           0           0           0           1           1           1           1           1           1
 AtZEff=  -0.0000000  -0.0000000  -0.0000000  -0.0000000  -0.0000000  -0.0000000  -0.0000000  -0.0000000  -0.0000000  -0.0000000
 NQMom=    0.0000000   0.0000000   0.0000000   0.0000000   0.0000000   0.0000000   0.0000000   0.0000000   0.0000000   0.0000000
 NMagM=    0.0000000   0.0000000   0.0000000   0.0000000   2.7928460   2.7928460   2.7928460   2.7928460   2.7928460   2.7928460
 AtZNuc=   6.0000000   6.0000000   6.0000000   6.0000000   1.0000000   1.0000000   1.0000000   1.0000000   1.0000000   1.0000000

  Atom        91          92          93          94          95
 IAtWgt=           1           1           1           1           1
 AtmWgt=   1.0078250   1.0078250   1.0078250   1.0078250   1.0078250
 NucSpn=           1           1           1           1           1
 AtZEff=  -0.0000000  -0.0000000  -0.0000000  -0.0000000  -0.0000000
 NQMom=    0.0000000   0.0000000   0.0000000   0.0000000   0.0000000
 NMagM=    2.7928460   2.7928460   2.7928460   2.7928460   2.7928460
 AtZNuc=   1.0000000   1.0000000   1.0000000   1.0000000   1.0000000
 Leave Link  101 at Sat Aug 12 03:49:30 2023, MaxMem=  4026531840 cpu:               5.9 elap:               0.2
 (Enter /sw/arch/Centos8/EB_production/2021/software/Gaussian/g16.c01/l202.exe)
 Symmetry turned off by external request.
 Stoichiometry    C36H56FeP2
 Framework group  C1[X(C36H56FeP2)]
 Deg. of freedom   279
 Full point group                 C1      NOp   1
                          Input orientation:                          
 ---------------------------------------------------------------------
 Center     Atomic      Atomic             Coordinates (Angstroms)
 Number     Number       Type             X           Y           Z
 ---------------------------------------------------------------------
      1          6           0       -4.080250   -0.129360   -1.754380
      2          6           0       -5.009730   -0.380560   -0.706150
      3          6           0       -5.356870    0.872330   -0.127280
      4          6           0       -4.637600    1.891890   -0.814540
      5          6           0       -3.844500    1.269590   -1.820630
      6          1           0       -3.634540   -0.874950   -2.405970
      7          1           0       -5.388500   -1.355150   -0.399320
      8          1           0       -6.034210    1.024830    0.713250
      9          1           0       -4.677060    2.958570   -0.591320
     10          1           0       -3.180320    1.770890   -2.525300
     11         26           0       -3.345670    0.568690    0.055450
     12          6           0       -2.412810    1.812100    1.363010
     13          6           0       -1.449870    1.171440    0.523040
     14          6           0       -1.537400   -0.253970    0.769930
     15          6           0       -2.641940   -0.453260    1.665530
     16          6           0       -3.146540    0.812650    2.062020
     17          1           0       -2.613220    2.881420    1.407750
     18          1           0       -3.006400   -1.421940    2.001300
     19          1           0       -3.983270    0.989810    2.737770
     20          6           0       -0.604120    1.864200   -0.516230
     21          1           0       -0.703570    1.277840   -1.446940
     22         15           0       -0.117510   -1.389060    0.653120
     23          6           0       -1.107410    3.277660   -0.797370
     24          1           0       -0.654320    3.684200   -1.706010
     25          1           0       -2.197090    3.255080   -0.951500
     26          1           0       -0.897080    3.983700    0.017220
     27         15           0        1.217720    1.698560   -0.146670
     28          6           0        1.384680    2.315090    1.618220
     29          6           0        2.800450    2.197880    2.189540
     30          6           0        3.680560    3.385950    1.816810
     31          6           0        3.049940    4.705800    2.262460
     32          6           0        1.607530    4.868150    1.781320
     33          6           0        0.769200    3.636580    2.092730
     34          1           0        2.701230    2.164440    3.291420
     35          1           0        4.675830    3.272790    2.280700
     36          1           0        3.664440    5.558010    1.924350
     37          1           0        1.153210    5.752480    2.260600
     38          1           0       -0.264140    3.753510    1.738430
     39          1           0        1.581560    5.069620    0.696350
     40          1           0        0.688460    3.538520    3.192860
     41          1           0        0.775850    1.515510    2.074640
     42          1           0        3.260760    1.240960    1.896660
     43          1           0        3.851830    3.397910    0.724390
     44          1           0        3.058470    4.739480    3.368440
     45          6           0        2.225080    2.520970   -1.508000
     46          6           0        1.851870    1.894650   -2.871470
     47          6           0        0.856740    2.693800   -3.708290
     48          6           0        1.295060    4.146410   -3.873240
     49          6           0        1.554190    4.828290   -2.532450
     50          6           0        2.516600    4.023560   -1.667270
     51          1           0        2.788380    1.824380   -3.457340
     52          1           0        0.768820    2.213650   -4.698270
     53          1           0        0.544420    4.710150   -4.453440
     54          1           0        1.990050    5.828120   -2.700890
     55          1           0        2.653890    4.505990   -0.690190
     56          1           0        0.607080    5.008290   -1.998070
     57          1           0        3.508850    4.068850   -2.156270
     58          1           0        3.196970    2.084400   -1.227190
     59          1           0        1.494170    0.855810   -2.738040
     60          1           0       -0.152650    2.644270   -3.265520
     61          1           0        2.226960    4.168280   -4.470300
     62          6           0       -0.419310   -2.968200   -0.299730
     63          6           0       -1.710610   -3.766020   -0.076560
     64          6           0       -2.889670   -3.260620   -0.894970
     65          6           0       -2.537530   -3.178920   -2.376030
     66          6           0       -1.323990   -2.279390   -2.586380
     67          6           0       -0.129400   -2.795410   -1.799010
     68          1           0       -1.492710   -4.809750   -0.374660
     69          1           0       -3.758270   -3.923480   -0.736900
     70          1           0       -3.402190   -2.826330   -2.965160
     71          1           0       -1.062410   -2.217060   -3.657060
     72          1           0        0.738350   -2.123720   -1.939660
     73          1           0       -1.556210   -1.250140   -2.251450
     74          1           0        0.160740   -3.785450   -2.201290
     75          1           0        0.401930   -3.571000    0.127990
     76          1           0       -1.972970   -3.810170    0.991890
     77          1           0       -3.174110   -2.259090   -0.532750
     78          1           0       -2.307490   -4.191650   -2.759130
     79          6           0        0.260240   -2.015860    2.393870
     80          6           0        1.104270   -1.006490    3.189370
     81          6           0        0.281680   -0.073530    4.068000
     82          6           0       -0.506830   -0.884280    5.087040
     83          6           0       -1.468110   -1.819110    4.366280
     84          6           0       -0.782170   -2.694080    3.312560
     85          1           0        1.781360   -1.580580    3.851670
     86          1           0        0.952310    0.645830    4.570230
     87          1           0       -1.066750   -0.222220    5.769560
     88          1           0       -1.974630   -2.484420    5.087060
     89          1           0       -1.539980   -3.238860    2.727870
     90          1           0       -2.257730   -1.203320    3.911180
     91          1           0       -0.221990   -3.477830    3.856600
     92          1           0        0.945560   -2.825380    2.082990
     93          1           0        1.758100   -0.441210    2.499370
     94          1           0       -0.423420    0.516730    3.451310
     95          1           0        0.197060   -1.463140    5.715180
 ---------------------------------------------------------------------
 Rotational constants (GHZ):           0.1080414           0.0770278           0.0641454
 Leave Link  202 at Sat Aug 12 03:49:30 2023, MaxMem=  4026531840 cpu:               0.1 elap:               0.0
 (Enter /sw/arch/Centos8/EB_production/2021/software/Gaussian/g16.c01/l301.exe)
 Standard basis: def2SVPP (5D, 7F)
 Ernie: Thresh=  0.10000D-02 Tol=  0.10000D-05 Strict=F.
   676 basis functions,  1269 primitive gaussians,   716 cartesian basis functions
   164 alpha electrons      164 beta electrons
       nuclear repulsion energy      6366.7369558968 Hartrees.
 IExCor= 1009 DFT=T Ex+Corr=PBE1PBE ExCW=0 ScaHFX=  0.250000
 ScaDFX=  0.750000  0.750000  1.000000  1.000000 ScalE2=  1.000000  1.000000
 IRadAn=      5 IRanWt=     -1 IRanGd=            0 ICorTp=0 IEmpDi=141
 NAtoms=   95 NActive=   95 NUniq=   95 SFac= 1.00D+00 NAtFMM=   60 NAOKFM=T Big=T
 Integral buffers will be    131072 words long.
 Raffenetti 2 integral format.
 Two-electron integral symmetry is turned off.
 R6Disp:  Grimme-D3(BJ) Dispersion energy=       -0.1429808106 Hartrees.
 Nuclear repulsion after empirical dispersion term =     6366.5939750862 Hartrees.
 Leave Link  301 at Sat Aug 12 03:49:30 2023, MaxMem=  4026531840 cpu:               0.8 elap:               0.0
 (Enter /sw/arch/Centos8/EB_production/2021/software/Gaussian/g16.c01/l302.exe)
 NPDir=0 NMtPBC=     1 NCelOv=     1 NCel=       1 NClECP=     1 NCelD=      1
         NCelK=      1 NCelE2=     1 NClLst=     1 CellRange=     0.0.
 One-electron integrals computed using PRISM.
   1 Symmetry operations used in ECPInt.
 ECPInt:  NShTT=   62835 NPrTT=  260282 LenC2=   56545 LenP2D=  148147.
 LDataN:  DoStor=T MaxTD1= 4 Len=   56
 NBasis=   676 RedAO= T EigKep=  4.39D-04  NBF=   676
 NBsUse=   676 1.00D-06 EigRej= -1.00D+00 NBFU=   676
 Precomputing XC quadrature grid using
 IXCGrd= 4 IRadAn=           5 IRanWt=          -1 IRanGd=           0 AccXCQ= 0.00D+00.
 Generated NRdTot=       0 NPtTot=           0 NUsed=           0 NTot=          32
 NSgBfM=   702   702   702   702   702 MxSgAt=    95 MxSgA2=    95.
 Leave Link  302 at Sat Aug 12 03:49:31 2023, MaxMem=  4026531840 cpu:              36.9 elap:               1.2
 (Enter /sw/arch/Centos8/EB_production/2021/software/Gaussian/g16.c01/l303.exe)
 DipDrv:  MaxL=1.
 Leave Link  303 at Sat Aug 12 03:49:31 2023, MaxMem=  4026531840 cpu:               3.5 elap:               0.1
 (Enter /sw/arch/Centos8/EB_production/2021/software/Gaussian/g16.c01/l308.exe)
 Leave Link  308 at Sat Aug 12 03:49:32 2023, MaxMem=  4026531840 cpu:               7.7 elap:               0.3
 (Enter /sw/arch/Centos8/EB_production/2021/software/Gaussian/g16.c01/l401.exe)
 ExpMin= 3.37D-02 ExpMax= 6.09D+04 ExpMxC= 9.15D+03 IAcc=3 IRadAn=         5 AccDes= 0.00D+00
 Harris functional with IExCor= 1009 and IRadAn=       5 diagonalized for initial guess.
 HarFok:  IExCor= 1009 AccDes= 0.00D+00 IRadAn=         5 IDoV= 1 UseB2=F ITyADJ=14
 ICtDFT=  3500011 ScaDFX=  1.000000  1.000000  1.000000  1.000000
 FoFCou: FMM=F IPFlag=           0 FMFlag=      100000 FMFlg1=        2001
         NFxFlg=           0 DoJE=T BraDBF=F KetDBF=T FulRan=T
         wScrn=  0.000000 ICntrl=       500 IOpCl=  0 I1Cent=   200000004 NGrid=           0
         NMat0=    1 NMatS0=      1 NMatT0=    0 NMatD0=    1 NMtDS0=    0 NMtDT0=    0
 Symmetry not used in FoFCou.
 Harris En= -3348.87408051424    
 JPrj=0 DoOrth=F DoCkMO=F.
 Leave Link  401 at Sat Aug 12 03:49:35 2023, MaxMem=  4026531840 cpu:             104.4 elap:               3.3
 (Enter /sw/arch/Centos8/EB_production/2021/software/Gaussian/g16.c01/l502.exe)
 Two-electron integral symmetry not used.
 Closed shell SCF:
 Using DIIS extrapolation, IDIIS=  1040.
 NGot=  4026531840 LenX=  4025473600 LenY=  4024960228
 Requested convergence on RMS density matrix=1.00D-08 within  90 cycles.
 Requested convergence on MAX density matrix=1.00D-06.
 Requested convergence on             energy=1.00D-06.
 No special actions if energy rises.
 Fock matrices will be formed incrementally for  20 cycles.

 Cycle   1  Pass 1  IDiag  1:
 FoFJK:  IHMeth= 1 ICntrl=       0 DoSepK=F KAlg= 0 I1Cent=           0 FoldK=F
 IRaf= 990000000 NMat=       1 IRICut=       1 DoRegI=T DoRafI=F ISym2E= 0 IDoP0=0 IntGTp=1.
 FoFCou: FMM=T IPFlag=           0 FMFlag=      100000 FMFlg1=        2001
         NFxFlg=           0 DoJE=F BraDBF=F KetDBF=F FulRan=T
         wScrn=  0.000000 ICntrl=         0 IOpCl=  0 I1Cent=           0 NGrid=           0
         NMat0=    1 NMatS0=      1 NMatT0=    0 NMatD0=    1 NMtDS0=    0 NMtDT0=    0
 Symmetry not used in FoFCou.
 FMM levels:  10  Number of levels for PrismC:   9
 E= -3347.37100518063    
 DIIS: error= 1.93D-02 at cycle   1 NSaved=   1.
 NSaved= 1 IEnMin= 1 EnMin= -3347.37100518063     IErMin= 1 ErrMin= 1.93D-02
 ErrMax= 1.93D-02  0.00D+00 EMaxC= 1.00D-01 BMatC= 1.02D+00 BMatP= 1.02D+00
 IDIUse=3 WtCom= 8.07D-01 WtEn= 1.93D-01
 Coeff-Com:  0.100D+01
 Coeff-En:   0.100D+01
 Coeff:      0.100D+01
 Gap=     0.142 Goal=   None    Shift=    0.000
 GapD=    0.142 DampG=1.000 DampE=0.250 DampFc=0.2500 IDamp=-1.
 Damping current iteration by 2.50D-01
 RMSDP=4.28D-03 MaxDP=1.70D-01              OVMax= 1.79D-01

 Cycle   2  Pass 1  IDiag  1:
 RMSU=  1.03D-03    CP:  9.81D-01
 E= -3347.74416714386     Delta-E=       -0.373161963236 Rises=F Damp=T
 DIIS: error= 9.23D-03 at cycle   2 NSaved=   2.
 NSaved= 2 IEnMin= 2 EnMin= -3347.74416714386     IErMin= 2 ErrMin= 9.23D-03
 ErrMax= 9.23D-03  0.00D+00 EMaxC= 1.00D-01 BMatC= 2.47D-01 BMatP= 1.02D+00
 IDIUse=3 WtCom= 9.08D-01 WtEn= 9.23D-02
 Coeff-Com: -0.467D+00 0.147D+01
 Coeff-En:   0.000D+00 0.100D+01
 Coeff:     -0.424D+00 0.142D+01
 Gap=     0.260 Goal=   None    Shift=    0.000
 RMSDP=4.17D-03 MaxDP=3.43D-01 DE=-3.73D-01 OVMax= 5.34D-01

 Cycle   3  Pass 1  IDiag  1:
 RMSU=  4.15D-03    CP:  9.75D-01  1.43D+00
 E= -3346.05309017580     Delta-E=        1.691076968063 Rises=F Damp=F
 DIIS: error= 1.33D-01 at cycle   3 NSaved=   3.
 NSaved= 3 IEnMin= 2 EnMin= -3347.74416714386     IErMin= 2 ErrMin= 9.23D-03
 ErrMax= 1.33D-01  0.00D+00 EMaxC= 1.00D-01 BMatC= 3.66D+00 BMatP= 2.47D-01
 IDIUse=2 WtCom= 0.00D+00 WtEn= 1.00D+00
 Coeff-En:   0.000D+00 0.824D+00 0.176D+00
 Coeff:      0.000D+00 0.824D+00 0.176D+00
 Gap=     0.357 Goal=   None    Shift=    0.000
 RMSDP=5.11D-03 MaxDP=3.84D-01 DE= 1.69D+00 OVMax= 3.47D-01

 Cycle   4  Pass 1  IDiag  1:
 RMSU=  1.30D-03    CP:  9.35D-01  2.75D+00 -1.35D-01
 E= -3347.05502422621     Delta-E=       -1.001934050411 Rises=F Damp=F
 DIIS: error= 7.51D-02 at cycle   4 NSaved=   4.
 NSaved= 4 IEnMin= 2 EnMin= -3347.74416714386     IErMin= 2 ErrMin= 9.23D-03
 ErrMax= 7.51D-02  0.00D+00 EMaxC= 1.00D-01 BMatC= 2.33D+00 BMatP= 2.47D-01
 IDIUse=2 WtCom= 0.00D+00 WtEn= 1.00D+00
 EnCoef did     2 forward-backward iterations
 Coeff-En:   0.888D-01 0.000D+00 0.375D+00 0.536D+00
 Coeff:      0.888D-01 0.000D+00 0.375D+00 0.536D+00
 Gap=     0.110 Goal=   None    Shift=    0.000
 RMSDP=2.28D-03 MaxDP=2.16D-01 DE=-1.00D+00 OVMax= 2.42D-01

 Cycle   5  Pass 1  IDiag  1:
 RMSU=  9.19D-04    CP:  9.70D-01  1.38D+00  1.74D-01  4.84D-01
 E= -3348.39041644431     Delta-E=       -1.335392218101 Rises=F Damp=F
 DIIS: error= 1.03D-02 at cycle   5 NSaved=   5.
 NSaved= 5 IEnMin= 5 EnMin= -3348.39041644431     IErMin= 2 ErrMin= 9.23D-03
 ErrMax= 1.03D-02  0.00D+00 EMaxC= 1.00D-01 BMatC= 8.00D-02 BMatP= 2.47D-01
 IDIUse=3 WtCom= 8.97D-01 WtEn= 1.03D-01
 Coeff-Com: -0.574D+00 0.792D+00 0.171D-01-0.547D-01 0.820D+00
 Coeff-En:   0.000D+00 0.000D+00 0.000D+00 0.532D-01 0.947D+00
 Coeff:     -0.515D+00 0.710D+00 0.154D-01-0.437D-01 0.833D+00
 Gap=     0.156 Goal=   None    Shift=    0.000
 RMSDP=6.09D-04 MaxDP=3.13D-02 DE=-1.34D+00 OVMax= 3.66D-02

 Cycle   6  Pass 1  IDiag  1:
 RMSU=  2.73D-04    CP:  9.61D-01  1.85D+00  1.52D-01  3.60D-01  9.14D-01
 E= -3348.46080237989     Delta-E=       -0.070385935574 Rises=F Damp=F
 DIIS: error= 2.02D-03 at cycle   6 NSaved=   6.
 NSaved= 6 IEnMin= 6 EnMin= -3348.46080237989     IErMin= 6 ErrMin= 2.02D-03
 ErrMax= 2.02D-03  0.00D+00 EMaxC= 1.00D-01 BMatC= 2.56D-03 BMatP= 8.00D-02
 IDIUse=3 WtCom= 9.80D-01 WtEn= 2.02D-02
 Coeff-Com: -0.269D+00 0.363D+00 0.486D-02-0.339D-01 0.430D+00 0.506D+00
 Coeff-En:   0.000D+00 0.000D+00 0.000D+00 0.000D+00 0.000D+00 0.100D+01
 Coeff:     -0.264D+00 0.355D+00 0.476D-02-0.333D-01 0.421D+00 0.516D+00
 Gap=     0.151 Goal=   None    Shift=    0.000
 RMSDP=1.60D-04 MaxDP=1.38D-02 DE=-7.04D-02 OVMax= 1.20D-02

 Cycle   7  Pass 1  IDiag  1:
 RMSU=  9.66D-05    CP:  9.62D-01  1.81D+00  1.49D-01  3.66D-01  9.60D-01
                    CP:  6.00D-01
 E= -3348.46289298906     Delta-E=       -0.002090609170 Rises=F Damp=F
 DIIS: error= 3.36D-04 at cycle   7 NSaved=   7.
 NSaved= 7 IEnMin= 7 EnMin= -3348.46289298906     IErMin= 7 ErrMin= 3.36D-04
 ErrMax= 3.36D-04  0.00D+00 EMaxC= 1.00D-01 BMatC= 1.75D-04 BMatP= 2.56D-03
 IDIUse=3 WtCom= 9.97D-01 WtEn= 3.36D-03
 Coeff-Com: -0.562D-01 0.712D-01-0.766D-03-0.107D-01 0.101D+00 0.276D+00
 Coeff-Com:  0.620D+00
 Coeff-En:   0.000D+00 0.000D+00 0.000D+00 0.000D+00 0.000D+00 0.000D+00
 Coeff-En:   0.100D+01
 Coeff:     -0.560D-01 0.710D-01-0.764D-03-0.107D-01 0.100D+00 0.275D+00
 Coeff:      0.622D+00
 Gap=     0.152 Goal=   None    Shift=    0.000
 RMSDP=6.17D-05 MaxDP=4.30D-03 DE=-2.09D-03 OVMax= 4.12D-03

 Cycle   8  Pass 1  IDiag  1:
 RMSU=  3.85D-05    CP:  9.62D-01  1.81D+00  1.44D-01  3.76D-01  9.55D-01
                    CP:  6.98D-01  6.80D-01
 E= -3348.46308391225     Delta-E=       -0.000190923198 Rises=F Damp=F
 DIIS: error= 1.55D-04 at cycle   8 NSaved=   8.
 NSaved= 8 IEnMin= 8 EnMin= -3348.46308391225     IErMin= 8 ErrMin= 1.55D-04
 ErrMax= 1.55D-04  0.00D+00 EMaxC= 1.00D-01 BMatC= 3.47D-05 BMatP= 1.75D-04
 IDIUse=3 WtCom= 9.98D-01 WtEn= 1.55D-03
 Coeff-Com:  0.858D-02-0.147D-01-0.125D-02-0.163D-02-0.881D-02 0.800D-01
 Coeff-Com:  0.364D+00 0.574D+00
 Coeff-En:   0.000D+00 0.000D+00 0.000D+00 0.000D+00 0.000D+00 0.000D+00
 Coeff-En:   0.219D-01 0.978D+00
 Coeff:      0.857D-02-0.146D-01-0.124D-02-0.163D-02-0.879D-02 0.799D-01
 Coeff:      0.363D+00 0.575D+00
 Gap=     0.153 Goal=   None    Shift=    0.000
 RMSDP=2.35D-05 MaxDP=2.24D-03 DE=-1.91D-04 OVMax= 2.15D-03

 Cycle   9  Pass 1  IDiag  1:
 RMSU=  1.54D-05    CP:  9.62D-01  1.82D+00  1.43D-01  3.76D-01  9.56D-01
                    CP:  6.99D-01  8.31D-01  8.06D-01
 E= -3348.46312682448     Delta-E=       -0.000042912230 Rises=F Damp=F
 DIIS: error= 6.89D-05 at cycle   9 NSaved=   9.
 NSaved= 9 IEnMin= 9 EnMin= -3348.46312682448     IErMin= 9 ErrMin= 6.89D-05
 ErrMax= 6.89D-05  0.00D+00 EMaxC= 1.00D-01 BMatC= 3.04D-06 BMatP= 3.47D-05
 IDIUse=1 WtCom= 1.00D+00 WtEn= 0.00D+00
 Coeff-Com:  0.966D-02-0.132D-01-0.591D-03 0.603D-03-0.169D-01-0.120D-01
 Coeff-Com:  0.373D-01 0.241D+00 0.754D+00
 Coeff:      0.966D-02-0.132D-01-0.591D-03 0.603D-03-0.169D-01-0.120D-01
 Coeff:      0.373D-01 0.241D+00 0.754D+00
 Gap=     0.153 Goal=   None    Shift=    0.000
 RMSDP=9.17D-06 MaxDP=5.45D-04 DE=-4.29D-05 OVMax= 8.26D-04

 Cycle  10  Pass 1  IDiag  1:
 RMSU=  5.82D-06    CP:  9.62D-01  1.82D+00  1.42D-01  3.78D-01  9.56D-01
                    CP:  7.02D-01  8.42D-01  9.15D-01  1.00D+00
 E= -3348.46313046154     Delta-E=       -0.000003637051 Rises=F Damp=F
 DIIS: error= 6.51D-05 at cycle  10 NSaved=  10.
 NSaved=10 IEnMin=10 EnMin= -3348.46313046154     IErMin=10 ErrMin= 6.51D-05
 ErrMax= 6.51D-05  0.00D+00 EMaxC= 1.00D-01 BMatC= 1.53D-06 BMatP= 3.04D-06
 IDIUse=1 WtCom= 1.00D+00 WtEn= 0.00D+00
 Coeff-Com:  0.333D-02-0.410D-02-0.331D-03 0.562D-03-0.677D-02-0.137D-01
 Coeff-Com: -0.220D-01 0.619D-01 0.401D+00 0.580D+00
 Coeff:      0.333D-02-0.410D-02-0.331D-03 0.562D-03-0.677D-02-0.137D-01
 Coeff:     -0.220D-01 0.619D-01 0.401D+00 0.580D+00
 Gap=     0.153 Goal=   None    Shift=    0.000
 RMSDP=3.11D-06 MaxDP=1.78D-04 DE=-3.64D-06 OVMax= 3.09D-04

 Cycle  11  Pass 1  IDiag  1:
 RMSU=  1.72D-06    CP:  9.62D-01  1.82D+00  1.42D-01  3.79D-01  9.55D-01
                    CP:  7.04D-01  8.43D-01  9.35D-01  1.08D+00  7.76D-01
 E= -3348.46313148318     Delta-E=       -0.000001021648 Rises=F Damp=F
 DIIS: error= 3.80D-05 at cycle  11 NSaved=  11.
 NSaved=11 IEnMin=11 EnMin= -3348.46313148318     IErMin=11 ErrMin= 3.80D-05
 ErrMax= 3.80D-05  0.00D+00 EMaxC= 1.00D-01 BMatC= 4.61D-07 BMatP= 1.53D-06
 IDIUse=1 WtCom= 1.00D+00 WtEn= 0.00D+00
 Coeff-Com:  0.356D-03-0.223D-03-0.193D-03 0.343D-03-0.108D-02-0.536D-02
 Coeff-Com: -0.180D-01 0.533D-03 0.125D+00 0.308D+00 0.591D+00
 Coeff:      0.356D-03-0.223D-03-0.193D-03 0.343D-03-0.108D-02-0.536D-02
 Coeff:     -0.180D-01 0.533D-03 0.125D+00 0.308D+00 0.591D+00
 Gap=     0.153 Goal=   None    Shift=    0.000
 RMSDP=1.32D-06 MaxDP=9.13D-05 DE=-1.02D-06 OVMax= 1.41D-04

 Cycle  12  Pass 1  IDiag  1:
 RMSU=  9.41D-07    CP:  9.62D-01  1.82D+00  1.42D-01  3.79D-01  9.55D-01
                    CP:  7.03D-01  8.46D-01  9.43D-01  1.10D+00  8.29D-01
                    CP:  8.99D-01
 E= -3348.46313176678     Delta-E=       -0.000000283593 Rises=F Damp=F
 DIIS: error= 1.92D-05 at cycle  12 NSaved=  12.
 NSaved=12 IEnMin=12 EnMin= -3348.46313176678     IErMin=12 ErrMin= 1.92D-05
 ErrMax= 1.92D-05  0.00D+00 EMaxC= 1.00D-01 BMatC= 1.18D-07 BMatP= 4.61D-07
 IDIUse=1 WtCom= 1.00D+00 WtEn= 0.00D+00
 Coeff-Com: -0.704D-03 0.947D-03-0.629D-04 0.106D-03 0.142D-02 0.173D-02
 Coeff-Com: -0.161D-02-0.146D-01-0.446D-01-0.211D-01 0.234D+00 0.845D+00
 Coeff:     -0.704D-03 0.947D-03-0.629D-04 0.106D-03 0.142D-02 0.173D-02
 Coeff:     -0.161D-02-0.146D-01-0.446D-01-0.211D-01 0.234D+00 0.845D+00
 Gap=     0.153 Goal=   None    Shift=    0.000
 RMSDP=1.08D-06 MaxDP=9.04D-05 DE=-2.84D-07 OVMax= 1.60D-04

 Cycle  13  Pass 1  IDiag  1:
 RMSU=  4.69D-07    CP:  9.62D-01  1.82D+00  1.41D-01  3.79D-01  9.55D-01
                    CP:  7.03D-01  8.46D-01  9.46D-01  1.12D+00  8.72D-01
                    CP:  1.19D+00  1.14D+00
 E= -3348.46313186737     Delta-E=       -0.000000100594 Rises=F Damp=F
 DIIS: error= 4.95D-06 at cycle  13 NSaved=  13.
 NSaved=13 IEnMin=13 EnMin= -3348.46313186737     IErMin=13 ErrMin= 4.95D-06
 ErrMax= 4.95D-06  0.00D+00 EMaxC= 1.00D-01 BMatC= 1.07D-08 BMatP= 1.18D-07
 IDIUse=1 WtCom= 1.00D+00 WtEn= 0.00D+00
 Coeff-Com: -0.396D-03 0.472D-03 0.353D-05-0.965D-05 0.896D-03 0.222D-02
 Coeff-Com:  0.387D-02-0.653D-02-0.509D-01-0.882D-01-0.468D-01 0.416D+00
 Coeff-Com:  0.770D+00
 Coeff:     -0.396D-03 0.472D-03 0.353D-05-0.965D-05 0.896D-03 0.222D-02
 Coeff:      0.387D-02-0.653D-02-0.509D-01-0.882D-01-0.468D-01 0.416D+00
 Coeff:      0.770D+00
 Gap=     0.153 Goal=   None    Shift=    0.000
 RMSDP=5.47D-07 MaxDP=5.41D-05 DE=-1.01D-07 OVMax= 1.04D-04

 Cycle  14  Pass 1  IDiag  1:
 RMSU=  2.01D-07    CP:  9.62D-01  1.82D+00  1.41D-01  3.79D-01  9.55D-01
                    CP:  7.04D-01  8.46D-01  9.48D-01  1.13D+00  8.98D-01
                    CP:  1.32D+00  1.49D+00  1.15D+00
 E= -3348.46313188789     Delta-E=       -0.000000020522 Rises=F Damp=F
 DIIS: error= 2.00D-06 at cycle  14 NSaved=  14.
 NSaved=14 IEnMin=14 EnMin= -3348.46313188789     IErMin=14 ErrMin= 2.00D-06
 ErrMax= 2.00D-06  0.00D+00 EMaxC= 1.00D-01 BMatC= 1.04D-09 BMatP= 1.07D-08
 IDIUse=1 WtCom= 1.00D+00 WtEn= 0.00D+00
 Coeff-Com: -0.371D-05-0.138D-04 0.160D-04-0.276D-04 0.243D-04 0.460D-03
 Coeff-Com:  0.174D-02 0.215D-03-0.105D-01-0.286D-01-0.603D-01-0.320D-03
 Coeff-Com:  0.302D+00 0.795D+00
 Coeff:     -0.371D-05-0.138D-04 0.160D-04-0.276D-04 0.243D-04 0.460D-03
 Coeff:      0.174D-02 0.215D-03-0.105D-01-0.286D-01-0.603D-01-0.320D-03
 Coeff:      0.302D+00 0.795D+00
 Gap=     0.153 Goal=   None    Shift=    0.000
 RMSDP=2.53D-07 MaxDP=2.60D-05 DE=-2.05D-08 OVMax= 5.65D-05

 Cycle  15  Pass 1  IDiag  1:
 RMSU=  9.45D-08    CP:  9.62D-01  1.82D+00  1.41D-01  3.79D-01  9.55D-01
                    CP:  7.04D-01  8.47D-01  9.49D-01  1.13D+00  9.03D-01
                    CP:  1.39D+00  1.64D+00  1.41D+00  1.17D+00
 E= -3348.46313189239     Delta-E=       -0.000000004493 Rises=F Damp=F
 DIIS: error= 1.57D-06 at cycle  15 NSaved=  15.
 NSaved=15 IEnMin=15 EnMin= -3348.46313189239     IErMin=15 ErrMin= 1.57D-06
 ErrMax= 1.57D-06  0.00D+00 EMaxC= 1.00D-01 BMatC= 8.87D-10 BMatP= 1.04D-09
 IDIUse=1 WtCom= 1.00D+00 WtEn= 0.00D+00
 Coeff-Com:  0.852D-04-0.110D-03 0.105D-04-0.166D-04-0.191D-03-0.345D-03
 Coeff-Com: -0.178D-03 0.139D-02 0.739D-02 0.102D-01-0.903D-02-0.949D-01
 Coeff-Com: -0.808D-01 0.274D+00 0.893D+00
 Coeff:      0.852D-04-0.110D-03 0.105D-04-0.166D-04-0.191D-03-0.345D-03
 Coeff:     -0.178D-03 0.139D-02 0.739D-02 0.102D-01-0.903D-02-0.949D-01
 Coeff:     -0.808D-01 0.274D+00 0.893D+00
 Gap=     0.153 Goal=   None    Shift=    0.000
 RMSDP=1.73D-07 MaxDP=1.90D-05 DE=-4.49D-09 OVMax= 3.84D-05

 Cycle  16  Pass 1  IDiag  1:
 RMSU=  5.46D-08    CP:  9.62D-01  1.82D+00  1.41D-01  3.79D-01  9.55D-01
                    CP:  7.04D-01  8.47D-01  9.49D-01  1.13D+00  9.07D-01
                    CP:  1.44D+00  1.74D+00  1.58D+00  1.46D+00  9.06D-01
 E= -3348.46313189429     Delta-E=       -0.000000001906 Rises=F Damp=F
 DIIS: error= 7.23D-07 at cycle  16 NSaved=  16.
 NSaved=16 IEnMin=16 EnMin= -3348.46313189429     IErMin=16 ErrMin= 7.23D-07
 ErrMax= 7.23D-07  0.00D+00 EMaxC= 1.00D-01 BMatC= 2.48D-10 BMatP= 8.87D-10
 IDIUse=1 WtCom= 1.00D+00 WtEn= 0.00D+00
 Coeff-Com:  0.406D-04-0.478D-04 0.292D-05-0.341D-05-0.938D-04-0.346D-03
 Coeff-Com: -0.702D-03 0.459D-03 0.689D-02 0.157D-01 0.183D-01-0.513D-01
 Coeff-Com: -0.170D+00-0.174D+00 0.545D+00 0.810D+00
 Coeff:      0.406D-04-0.478D-04 0.292D-05-0.341D-05-0.938D-04-0.346D-03
 Coeff:     -0.702D-03 0.459D-03 0.689D-02 0.157D-01 0.183D-01-0.513D-01
 Coeff:     -0.170D+00-0.174D+00 0.545D+00 0.810D+00
 Gap=     0.153 Goal=   None    Shift=    0.000
 RMSDP=1.22D-07 MaxDP=1.43D-05 DE=-1.91D-09 OVMax= 2.77D-05

 Cycle  17  Pass 1  IDiag  1:
 RMSU=  2.17D-08    CP:  9.62D-01  1.82D+00  1.41D-01  3.79D-01  9.55D-01
                    CP:  7.04D-01  8.47D-01  9.49D-01  1.13D+00  9.12D-01
                    CP:  1.47D+00  1.81D+00  1.70D+00  1.64D+00  1.31D+00
                    CP:  7.86D-01
 E= -3348.46313189494     Delta-E=       -0.000000000648 Rises=F Damp=F
 DIIS: error= 1.10D-07 at cycle  17 NSaved=  17.
 NSaved=17 IEnMin=17 EnMin= -3348.46313189494     IErMin=17 ErrMin= 1.10D-07
 ErrMax= 1.10D-07  0.00D+00 EMaxC= 1.00D-01 BMatC= 1.41D-11 BMatP= 2.48D-10
 IDIUse=1 WtCom= 1.00D+00 WtEn= 0.00D+00
 Coeff-Com:  0.384D-05-0.350D-05 0.471D-06-0.242D-06-0.819D-05-0.969D-04
 Coeff-Com: -0.255D-03-0.218D-04 0.157D-02 0.491D-02 0.850D-02-0.104D-01
 Coeff-Com: -0.654D-01-0.118D+00 0.121D+00 0.389D+00 0.668D+00
 Coeff:      0.384D-05-0.350D-05 0.471D-06-0.242D-06-0.819D-05-0.969D-04
 Coeff:     -0.255D-03-0.218D-04 0.157D-02 0.491D-02 0.850D-02-0.104D-01
 Coeff:     -0.654D-01-0.118D+00 0.121D+00 0.389D+00 0.668D+00
 Gap=     0.153 Goal=   None    Shift=    0.000
 RMSDP=3.02D-08 MaxDP=3.17D-06 DE=-6.48D-10 OVMax= 6.63D-06

 Cycle  18  Pass 1  IDiag  1:
 RMSU=  8.48D-09    CP:  9.62D-01  1.82D+00  1.41D-01  3.79D-01  9.55D-01
                    CP:  7.04D-01  8.47D-01  9.49D-01  1.13D+00  9.13D-01
                    CP:  1.48D+00  1.83D+00  1.72D+00  1.69D+00  1.33D+00
                    CP:  9.28D-01  8.42D-01
 E= -3348.46313189491     Delta-E=        0.000000000033 Rises=F Damp=F
 DIIS: error= 3.25D-08 at cycle  18 NSaved=  18.
 NSaved=18 IEnMin=17 EnMin= -3348.46313189494     IErMin=18 ErrMin= 3.25D-08
 ErrMax= 3.25D-08  0.00D+00 EMaxC= 1.00D-01 BMatC= 2.41D-12 BMatP= 1.41D-11
 IDIUse=1 WtCom= 1.00D+00 WtEn= 0.00D+00
 Coeff-Com: -0.188D-05 0.265D-05-0.966D-09 0.118D-06 0.521D-05-0.139D-04
 Coeff-Com: -0.488D-04-0.528D-04 0.354D-04 0.753D-03 0.209D-02-0.485D-03
 Coeff-Com: -0.155D-01-0.410D-01 0.553D-02 0.119D+00 0.361D+00 0.569D+00
 Coeff:     -0.188D-05 0.265D-05-0.966D-09 0.118D-06 0.521D-05-0.139D-04
 Coeff:     -0.488D-04-0.528D-04 0.354D-04 0.753D-03 0.209D-02-0.485D-03
 Coeff:     -0.155D-01-0.410D-01 0.553D-02 0.119D+00 0.361D+00 0.569D+00
 Gap=     0.153 Goal=   None    Shift=    0.000
 RMSDP=6.47D-09 MaxDP=4.19D-07 DE= 3.27D-11 OVMax= 1.06D-06

 SCF Done:  E(RPBE1PBE) =  -3348.46313189     A.U. after   18 cycles
            NFock= 18  Conv=0.65D-08     -V/T= 2.0057
 KE= 3.329429458404D+03 PE=-2.060707937199D+04 EE= 7.562592806602D+03
 Leave Link  502 at Sat Aug 12 03:52:51 2023, MaxMem=  4026531840 cpu:            6175.7 elap:             195.6
 (Enter /sw/arch/Centos8/EB_production/2021/software/Gaussian/g16.c01/l508.exe)
 QCSCF skips out because SCF is already converged.
 Leave Link  508 at Sat Aug 12 03:52:51 2023, MaxMem=  4026531840 cpu:               0.3 elap:               0.0
 (Enter /sw/arch/Centos8/EB_production/2021/software/Gaussian/g16.c01/l801.exe)
 DoSCS=F DFT=T ScalE2(SS,OS)=  1.000000  1.000000
 Range of M.O.s used for correlation:     1   676
 NBasis=   676 NAE=   164 NBE=   164 NFC=     0 NFV=     0
 NROrb=    676 NOA=   164 NOB=   164 NVA=   512 NVB=   512
 Leave Link  801 at Sat Aug 12 03:52:51 2023, MaxMem=  4026531840 cpu:               0.5 elap:               0.0
 (Enter /sw/arch/Centos8/EB_production/2021/software/Gaussian/g16.c01/l1002.exe)
 Minotr:  Closed shell wavefunction.
          Direct CPHF calculation.
          Differentiating once with respect to magnetic field using GIAOs.
          Electric field/nuclear overlap derivatives assumed to be zero.
          Requested convergence is 1.0D-08 RMS, and 1.0D-07 maximum.
          Secondary convergence is 1.0D-12 RMS, and 1.0D-12 maximum.
          NewPWx=T KeepS1=F KeepF1=F KeepIn=T MapXYZ=F SortEE=F KeepMc=T.
        29277 words used for storage of precomputed grid.
 Two-electron integral symmetry not used.
          MDV=    4026531840 using IRadAn=       1.
          Solving linear equations simultaneously, MaxMat=      96.
 FoFCou: FMM=F IPFlag=           0 FMFlag=      100000 FMFlg1=        2001
         NFxFlg=           0 DoJE=F BraDBF=F KetDBF=T FulRan=T
         wScrn=  0.000000 ICntrl=      6100 IOpCl=  0 I1Cent=           7 NGrid=          95
         NMat0=    1 NMatS0=      1 NMatT0=    0 NMatD0=    1 NMtDS0=    0 NMtDT0=    0
 Symmetry not used in FoFCou.
   1 Symmetry operations used in ECPInt.
 ECPInt:  NShTT=   62835 NPrTT=  260282 LenC2=   62836 LenP2D=  260282.
 LDataN:  DoStor=T MaxTD1= 5 Len=  102
 FoFJK:  IHMeth= 1 ICntrl=    6127 DoSepK=F KAlg= 0 I1Cent=           0 FoldK=F
 IRaf=         1 NMat=       1 IRICut=       1 DoRegI=T DoRafI=F ISym2E= 0 IDoP0=0 IntGTp=1.
          There are     3 degrees of freedom in the 1st order CPHF.  IDoFFX=0 NUNeed=     3.
      3 vectors produced by pass  0 Test12= 2.80D-12 3.33D-08 XBig12= 1.74D+02 2.18D+00.
 AX will form     3 AO Fock derivatives at one time.
      3 vectors produced by pass  1 Test12= 2.80D-12 3.33D-08 XBig12= 1.40D+00 4.45D-01.
      3 vectors produced by pass  2 Test12= 2.80D-12 3.33D-08 XBig12= 6.74D-02 7.98D-02.
      3 vectors produced by pass  3 Test12= 2.80D-12 3.33D-08 XBig12= 6.38D-04 8.12D-03.
      3 vectors produced by pass  4 Test12= 2.80D-12 3.33D-08 XBig12= 3.29D-05 2.36D-03.
      3 vectors produced by pass  5 Test12= 2.80D-12 3.33D-08 XBig12= 3.17D-07 1.07D-04.
      3 vectors produced by pass  6 Test12= 2.80D-12 3.33D-08 XBig12= 1.54D-09 1.33D-05.
      3 vectors produced by pass  7 Test12= 2.80D-12 3.33D-08 XBig12= 4.87D-11 2.05D-06.
      3 vectors produced by pass  8 Test12= 2.80D-12 3.33D-08 XBig12= 3.52D-13 1.28D-07.
 InvSVY:  IOpt=1 It=  1 EMax= 3.55D-15
 Solved reduced A of dimension    27 with     3 vectors.
 Calculating GIAO nuclear magnetic shielding tensors.
 SCF GIAO Magnetic shielding tensor (ppm):
      1  C    Isotropic =   119.1588   Anisotropy =    87.6862
   XX=   152.6121   YX=   -11.4258   ZX=    31.8807
   XY=    -3.1071   YY=   100.0203   ZY=   -24.4975
   XZ=    41.2285   YZ=   -30.6560   ZZ=   104.8439
   Eigenvalues:    69.1521   110.7080   177.6163
      2  C    Isotropic =   124.9970   Anisotropy =    84.7273
   XX=   135.5485   YX=   -49.4482   ZX=    29.6403
   XY=   -29.4358   YY=    96.8738   ZY=    -1.4195
   XZ=    27.5665   YZ=   -14.9011   ZZ=   142.5687
   Eigenvalues:    71.2004   122.3087   181.4819
      3  C    Isotropic =   127.2348   Anisotropy =    78.8696
   XX=   109.0575   YX=     4.8388   ZX=    58.2704
   XY=     6.1781   YY=   127.9420   ZY=    -9.3807
   XZ=    41.0498   YZ=    -5.6110   ZZ=   144.7050
   Eigenvalues:    72.7094   129.1806   179.8145
      4  C    Isotropic =   125.3703   Anisotropy =    82.5363
   XX=   154.0958   YX=    28.6264   ZX=    27.9315
   XY=    14.8936   YY=    77.8760   ZY=    -1.7631
   XZ=    26.1461   YZ=    10.4831   ZZ=   144.1390
   Eigenvalues:    71.9850   123.7314   180.3945
      5  C    Isotropic =   119.3482   Anisotropy =    93.0516
   XX=   158.8529   YX=     0.7997   ZX=    32.8714
   XY=   -10.1135   YY=    98.7042   ZY=    14.6135
   XZ=    52.1036   YZ=    18.8166   ZZ=   100.4874
   Eigenvalues:    68.5488   108.1131   181.3826
      6  H    Isotropic =    28.3614   Anisotropy =     7.8055
   XX=    27.4215   YX=    -2.2576   ZX=    -0.9924
   XY=    -3.1926   YY=    31.8426   ZY=     0.7229
   XZ=    -2.0661   YZ=     1.8105   ZZ=    25.8200
   Eigenvalues:    24.8702    26.6488    33.5650
      7  H    Isotropic =    28.4248   Anisotropy =     3.7932
   XX=    28.7618   YX=     0.6260   ZX=    -2.2388
   XY=     0.1117   YY=    30.7957   ZY=    -0.9726
   XZ=    -1.5529   YZ=     0.4365   ZZ=    25.7169
   Eigenvalues:    24.8067    29.5141    30.9536
      8  H    Isotropic =    28.4047   Anisotropy =     5.9461
   XX=    30.0799   YX=    -0.5398   ZX=    -3.9015
   XY=    -0.3321   YY=    27.2162   ZY=     0.5554
   XZ=    -2.3301   YZ=     0.3182   ZZ=    27.9180
   Eigenvalues:    25.6937    27.1516    32.3688
      9  H    Isotropic =    28.2127   Anisotropy =     3.6462
   XX=    28.6124   YX=    -1.0377   ZX=    -0.7762
   XY=     0.3716   YY=    30.5433   ZY=     0.7900
   XZ=    -0.8762   YZ=    -0.1235   ZZ=    25.4822
   Eigenvalues:    25.2662    28.7283    30.6435
     10  H    Isotropic =    28.7138   Anisotropy =     3.7561
   XX=    29.0675   YX=     1.3396   ZX=    -0.8246
   XY=     2.3362   YY=    29.3132   ZY=     0.6647
   XZ=    -1.4050   YZ=    -0.7198   ZZ=    27.7607
   Eigenvalues:    26.6775    28.2460    31.2179
     11  Fe   Isotropic = -5470.3484   Anisotropy =  9394.7529
   XX= -3578.8218   YX=  -528.6023   ZX=  4557.2357
   XY=  -427.7006   YY= -8715.1436   ZY=  -159.4212
   XZ=  4660.3695   YZ=  -222.2294   ZZ= -4117.0797
   Eigenvalues: -8835.5914 -8368.2739   792.8202
     12  C    Isotropic =   123.3955   Anisotropy =    79.2930
   XX=   140.0898   YX=    -9.1547   ZX=    25.9560
   XY=    -1.7843   YY=    76.1747   ZY=   -18.1774
   XZ=    16.3508   YZ=   -38.3193   ZZ=   153.9220
   Eigenvalues:    66.9687   126.9602   176.2575
     13  C    Isotropic =   102.0236   Anisotropy =    87.9845
   XX=    89.4259   YX=    -9.9013   ZX=    51.8820
   XY=   -10.3589   YY=    77.4377   ZY=     8.1116
   XZ=    25.1489   YZ=   -11.7851   ZZ=   139.2073
   Eigenvalues:    63.6454    81.7456   160.6800
     14  C    Isotropic =   113.4002   Anisotropy =    95.9993
   XX=    94.0161   YX=    31.9715   ZX=    30.5971
   XY=    21.4475   YY=   101.7119   ZY=    21.5818
   XZ=    27.8237   YZ=    37.7696   ZZ=   144.4724
   Eigenvalues:    70.7112    92.0895   177.3997
     15  C    Isotropic =   112.2249   Anisotropy =    84.2882
   XX=   135.8137   YX=    -1.5374   ZX=    28.9906
   XY=    -5.4445   YY=    76.6932   ZY=    25.8501
   XZ=    33.6871   YZ=    52.7050   ZZ=   124.1678
   Eigenvalues:    50.2223   118.0354   168.4170
     16  C    Isotropic =   126.0621   Anisotropy =    78.9295
   XX=   147.8354   YX=     9.9277   ZX=    39.5496
   XY=     9.4974   YY=   128.1938   ZY=   -11.0113
   XZ=    56.7292   YZ=    -3.0216   ZZ=   102.1571
   Eigenvalues:    69.5964   129.9082   178.6818
     17  H    Isotropic =    27.9411   Anisotropy =     3.9128
   XX=    28.6321   YX=     0.1521   ZX=    -2.4986
   XY=    -0.6196   YY=    28.9863   ZY=    -1.5841
   XZ=    -2.8853   YZ=    -0.9357   ZZ=    26.2051
   Eigenvalues:    24.1717    29.1021    30.5497
     18  H    Isotropic =    27.7781   Anisotropy =     1.1092
   XX=    27.8536   YX=    -1.3110   ZX=     0.4162
   XY=     0.2911   YY=    28.1103   ZY=     0.1645
   XZ=    -1.2424   YZ=    -0.5640   ZZ=    27.3704
   Eigenvalues:    26.9593    27.8574    28.5175
     19  H    Isotropic =    28.1154   Anisotropy =     6.2582
   XX=    30.0154   YX=    -0.8989   ZX=    -2.7802
   XY=    -0.8318   YY=    27.0115   ZY=    -0.7555
   XZ=    -3.8195   YZ=     0.1074   ZZ=    27.3194
   Eigenvalues:    24.8382    27.2205    32.2876
     20  C    Isotropic =   162.0171   Anisotropy =    14.0623
   XX=   169.4064   YX=     9.4241   ZX=    -4.0510
   XY=     2.1707   YY=   146.6678   ZY=    -1.4831
   XZ=     4.6403   YZ=    -6.7769   ZZ=   169.9771
   Eigenvalues:   144.6167   170.0426   171.3920
     21  H    Isotropic =    28.4512   Anisotropy =     6.1737
   XX=    26.5105   YX=     4.0052   ZX=    -1.4055
   XY=     3.3186   YY=    29.2375   ZY=     1.3800
   XZ=     0.5434   YZ=     2.7573   ZZ=    29.6056
   Eigenvalues:    23.5598    29.2268    32.5670
     22  P    Isotropic =   418.0878   Anisotropy =   127.4865
   XX=   416.1764   YX=    27.6706   ZX=    43.8391
   XY=    11.5574   YY=   360.1893   ZY=    22.4796
   XZ=    40.8833   YZ=     8.4977   ZZ=   477.8977
   Eigenvalues:   353.9582   397.2264   503.0788
     23  C    Isotropic =   166.3328   Anisotropy =    15.3602
   XX=   171.7906   YX=    -2.6419   ZX=     0.0382
   XY=    -3.7299   YY=   171.3240   ZY=   -10.8533
   XZ=    -3.1248   YZ=    -7.0935   ZZ=   155.8837
   Eigenvalues:   151.3969   171.0285   176.5729
     24  H    Isotropic =    29.5696   Anisotropy =    11.0004
   XX=    29.6724   YX=     1.6655   ZX=    -4.2225
   XY=     2.3109   YY=    27.9662   ZY=    -4.0121
   XZ=    -4.5245   YZ=    -3.9263   ZZ=    31.0700
   Eigenvalues:    24.9463    26.8592    36.9032
     25  H    Isotropic =    29.4530   Anisotropy =     8.9360
   XX=    35.3262   YX=     1.0552   ZX=     0.5457
   XY=    -0.5144   YY=    27.2466   ZY=    -0.9535
   XZ=     1.2253   YZ=    -1.7602   ZZ=    25.7862
   Eigenvalues:    24.8980    28.0507    35.4103
     26  H    Isotropic =    29.9667   Anisotropy =     5.2307
   XX=    28.8123   YX=     1.0364   ZX=     1.2190
   XY=    -0.3184   YY=    31.4457   ZY=     2.4572
   XZ=     1.7291   YZ=     2.4612   ZZ=    29.6420
   Eigenvalues:    27.2022    29.2440    33.4538
     27  P    Isotropic =   394.9515   Anisotropy =    47.2486
   XX=   371.0144   YX=    32.8179   ZX=   -25.6483
   XY=    48.8121   YY=   392.4452   ZY=    -0.1951
   XZ=    33.3551   YZ=     3.2243   ZZ=   421.3951
   Eigenvalues:   339.4764   418.9276   426.4506
     28  C    Isotropic =   160.6592   Anisotropy =    16.1153
   XX=   156.5349   YX=    -1.9639   ZX=     0.9742
   XY=    -2.8226   YY=   154.8523   ZY=     5.0018
   XZ=    -6.3696   YZ=    -1.3013   ZZ=   170.5903
   Eigenvalues:   153.1566   157.4182   171.4027
     29  C    Isotropic =   160.2361   Anisotropy =    12.9647
   XX=   161.6416   YX=    -1.9289   ZX=     7.5978
   XY=     0.5114   YY=   155.2962   ZY=    -0.3939
   XZ=     3.6908   YZ=     7.6817   ZZ=   163.7705
   Eigenvalues:   152.9071   158.9220   168.8792
     30  C    Isotropic =   168.2377   Anisotropy =     7.3240
   XX=   167.6743   YX=     2.6579   ZX=    -0.1038
   XY=     3.5563   YY=   166.4642   ZY=    -0.3861
   XZ=     6.8365   YZ=    -0.4413   ZZ=   170.5746
   Eigenvalues:   163.0144   168.5783   173.1203
     31  C    Isotropic =   165.6584   Anisotropy =     3.9468
   XX=   163.8873   YX=    -0.8037   ZX=     2.1161
   XY=    -0.7300   YY=   164.8286   ZY=     3.5810
   XZ=    -2.7835   YZ=    -3.9545   ZZ=   168.2593
   Eigenvalues:   163.4279   165.2577   168.2896
     32  C    Isotropic =   168.8941   Anisotropy =     7.6819
   XX=   166.7075   YX=     4.1423   ZX=     0.3749
   XY=     2.2497   YY=   169.2448   ZY=     0.1435
   XZ=    -2.8411   YZ=     7.3784   ZZ=   170.7299
   Eigenvalues:   163.1168   169.5500   174.0153
     33  C    Isotropic =   162.1287   Anisotropy =    12.5418
   XX=   155.4958   YX=     0.4331   ZX=    -0.9411
   XY=     0.0057   YY=   163.4097   ZY=     4.5233
   XZ=     5.3578   YZ=     4.1287   ZZ=   167.4807
   Eigenvalues:   155.0591   160.8372   170.4900
     34  H    Isotropic =    30.6561   Anisotropy =     7.3612
   XX=    29.2765   YX=     2.5289   ZX=     2.8811
   XY=     2.5433   YY=    29.0305   ZY=    -3.7388
   XZ=     2.6643   YZ=    -2.3678   ZZ=    33.6614
   Eigenvalues:    24.7141    31.6908    35.5636
     35  H    Isotropic =    30.5445   Anisotropy =    11.6790
   XX=    37.1273   YX=     0.2207   ZX=     3.6588
   XY=     0.1208   YY=    27.9714   ZY=    -0.0307
   XZ=     3.8667   YZ=     0.0404   ZZ=    26.5348
   Eigenvalues:    25.3333    27.9697    38.3305
     36  H    Isotropic =    30.2638   Anisotropy =    10.7120
   XX=    30.8918   YX=     5.1059   ZX=     0.3334
   XY=     4.8717   YY=    33.5804   ZY=    -0.1611
   XZ=     0.3905   YZ=     0.0060   ZZ=    26.3191
   Eigenvalues:    26.1897    27.1965    37.4051
     37  H    Isotropic =    30.5025   Anisotropy =    10.5654
   XX=    29.0493   YX=    -1.9836   ZX=    -0.7553
   XY=    -2.2741   YY=    35.4565   ZY=     3.6344
   XZ=    -0.5523   YZ=     4.1204   ZZ=    27.0018
   Eigenvalues:    25.4844    28.4770    37.5461
     38  H    Isotropic =    29.7279   Anisotropy =     8.8277
   XX=    33.9451   YX=     2.3331   ZX=     2.6681
   XY=     0.4706   YY=    28.3222   ZY=     1.8408
   XZ=     2.7767   YZ=     3.7807   ZZ=    26.9164
   Eigenvalues:    24.5196    29.0510    35.6130
     39  H    Isotropic =    30.1557   Anisotropy =     6.9126
   XX=    26.9863   YX=     0.8976   ZX=     1.2458
   XY=     0.7212   YY=    29.0987   ZY=    -1.7728
   XZ=     1.0778   YZ=    -0.6265   ZZ=    34.3821
   Eigenvalues:    26.4273    29.2756    34.7641
     40  H    Isotropic =    30.6997   Anisotropy =     6.5742
   XX=    28.2451   YX=     2.0018   ZX=    -3.1638
   XY=     1.0402   YY=    29.8846   ZY=     1.3574
   XZ=    -1.6970   YZ=     1.9244   ZZ=    33.9696
   Eigenvalues:    26.2286    30.7880    35.0826
     41  H    Isotropic =    30.2620   Anisotropy =    11.2152
   XX=    29.4372   YX=     6.1805   ZX=    -0.8109
   XY=     5.6607   YY=    31.8519   ZY=    -4.5009
   XZ=     2.0479   YZ=    -3.7681   ZZ=    29.4968
   Eigenvalues:    22.9881    30.0591    37.7388
     42  H    Isotropic =    30.1129   Anisotropy =     6.0964
   XX=    31.0818   YX=    -1.5417   ZX=     0.7205
   XY=    -1.2242   YY=    33.4364   ZY=    -0.6751
   XZ=     1.2370   YZ=    -0.4384   ZZ=    25.8204
   Eigenvalues:    25.6319    30.5296    34.1771
     43  H    Isotropic =    30.5186   Anisotropy =     5.7924
   XX=    30.8290   YX=     1.7702   ZX=    -1.4490
   XY=     1.3198   YY=    26.5988   ZY=     0.1930
   XZ=    -0.4294   YZ=     0.2931   ZZ=    34.1279
   Eigenvalues:    26.0603    31.1153    34.3802
     44  H    Isotropic =    30.6362   Anisotropy =    10.1731
   XX=    28.6436   YX=     1.1575   ZX=     3.2589
   XY=     0.8300   YY=    28.9538   ZY=     4.1784
   XZ=     2.7767   YZ=     3.4524   ZZ=    34.3111
   Eigenvalues:    26.6906    27.7997    37.4183
     45  C    Isotropic =   161.6457   Anisotropy =    18.5284
   XX=   167.2346   YX=     5.4002   ZX=    -2.2176
   XY=     4.4582   YY=   154.5953   ZY=    -9.0905
   XZ=   -10.1078   YZ=    -0.1918   ZZ=   163.1072
   Eigenvalues:   152.1646   158.7745   173.9980
     46  C    Isotropic =   164.2963   Anisotropy =    11.2691
   XX=   159.7920   YX=     2.8924   ZX=    -4.8325
   XY=    -6.6710   YY=   163.6509   ZY=     2.7719
   XZ=    -5.3754   YZ=    -1.8988   ZZ=   169.4460
   Eigenvalues:   157.2096   163.8703   171.8091
     47  C    Isotropic =   169.4492   Anisotropy =     7.7478
   XX=   167.6128   YX=    -1.7324   ZX=    -5.8883
   XY=     0.3769   YY=   167.6379   ZY=    -2.2311
   XZ=    -0.3296   YZ=    -0.3162   ZZ=   173.0970
   Eigenvalues:   165.5560   168.1772   174.6144
     48  C    Isotropic =   166.3433   Anisotropy =     6.3769
   XX=   169.2202   YX=    -1.8025   ZX=     0.5523
   XY=     2.3014   YY=   165.3350   ZY=    -0.7132
   XZ=    -6.3526   YZ=     1.7908   ZZ=   164.4749
   Eigenvalues:   162.9525   165.4829   170.5946
     49  C    Isotropic =   170.9378   Anisotropy =     8.1165
   XX=   170.8801   YX=     6.7352   ZX=    -0.7113
   XY=     0.9480   YY=   169.8385   ZY=    -1.0272
   XZ=    -1.1588   YZ=    -5.5598   ZZ=   172.0947
   Eigenvalues:   165.8249   170.6396   176.3487
     50  C    Isotropic =   161.5454   Anisotropy =    14.4981
   XX=   155.8014   YX=     3.5116   ZX=    -5.8844
   XY=     4.0435   YY=   163.2949   ZY=    -6.7193
   XZ=    -2.8364   YZ=    -2.2808   ZZ=   165.5400
   Eigenvalues:   153.6347   159.7908   171.2108
     51  H    Isotropic =    30.0707   Anisotropy =    10.0235
   XX=    31.5222   YX=    -2.2441   ZX=    -3.8990
   XY=    -3.6294   YY=    27.0400   ZY=     2.2850
   XZ=    -3.9844   YZ=     1.5836   ZZ=    31.6500
   Eigenvalues:    25.5869    27.8723    36.7531
     52  H    Isotropic =    30.4365   Anisotropy =     9.9700
   XX=    25.9295   YX=     1.4220   ZX=     1.7263
   XY=     1.2863   YY=    29.6480   ZY=     2.6205
   XZ=     1.6801   YZ=     2.5989   ZZ=    35.7320
   Eigenvalues:    25.4101    28.8163    37.0831
     53  H    Isotropic =    30.1677   Anisotropy =     9.9702
   XX=    28.2504   YX=    -2.0423   ZX=     3.4434
   XY=    -2.0652   YY=    30.4673   ZY=    -3.7699
   XZ=     3.3346   YZ=    -3.8981   ZZ=    31.7855
   Eigenvalues:    26.1666    27.5220    36.8145
     54  H    Isotropic =    30.5233   Anisotropy =    11.2310
   XX=    26.4836   YX=     3.3702   ZX=     0.2685
   XY=     2.9976   YY=    36.6868   ZY=    -2.1848
   XZ=     0.4362   YZ=    -2.1413   ZZ=    28.3996
   Eigenvalues:    25.2619    28.2974    38.0107
     55  H    Isotropic =    29.4950   Anisotropy =    10.0170
   XX=    25.4811   YX=     2.5297   ZX=     1.5997
   XY=     1.7525   YY=    27.4961   ZY=     1.5201
   XZ=     1.8521   YZ=     1.3599   ZZ=    35.5078
   Eigenvalues:    24.0774    28.2346    36.1730
     56  H    Isotropic =    29.8754   Anisotropy =     5.5873
   XX=    30.7365   YX=    -0.3636   ZX=    -3.4667
   XY=    -1.2791   YY=    29.3854   ZY=    -0.0842
   XZ=    -3.2500   YZ=    -0.2582   ZZ=    29.5044
   Eigenvalues:    26.5515    29.4745    33.6003
     57  H    Isotropic =    30.1687   Anisotropy =     9.5919
   XX=    34.4137   YX=     3.0192   ZX=    -2.4589
   XY=     3.2445   YY=    28.5697   ZY=    -2.5208
   XZ=    -1.3486   YZ=    -1.9775   ZZ=    27.5226
   Eigenvalues:    25.7014    28.2414    36.5633
     58  H    Isotropic =    29.6658   Anisotropy =     7.0034
   XX=    33.9075   YX=    -1.8623   ZX=    -0.7930
   XY=    -1.5129   YY=    27.4660   ZY=    -2.1746
   XZ=     0.3447   YZ=    -1.9027   ZZ=    27.6239
   Eigenvalues:    25.2806    29.3821    34.3347
     59  H    Isotropic =    29.7008   Anisotropy =     7.8970
   XX=    25.7674   YX=     1.8937   ZX=    -1.6329
   XY=     1.7195   YY=    34.5888   ZY=    -0.1796
   XZ=    -1.7689   YZ=     0.1305   ZZ=    28.7461
   Eigenvalues:    24.7215    29.4153    34.9654
     60  H    Isotropic =    30.1935   Anisotropy =     7.3362
   XX=    33.0845   YX=     2.0668   ZX=    -2.4183
   XY=     2.0915   YY=    27.0319   ZY=    -1.1100
   XZ=    -1.9877   YZ=    -1.4983   ZZ=    30.4641
   Eigenvalues:    26.2817    29.2145    35.0843
     61  H    Isotropic =    30.5634   Anisotropy =    10.4785
   XX=    29.3727   YX=     2.0997   ZX=    -4.2915
   XY=     2.4242   YY=    28.5368   ZY=    -1.9435
   XZ=    -4.9449   YZ=    -1.7390   ZZ=    33.7808
   Eigenvalues:    25.9876    28.1537    37.5491
     62  C    Isotropic =   153.8658   Anisotropy =    21.5307
   XX=   142.9426   YX=    -3.4940   ZX=    10.1133
   XY=    -7.6788   YY=   165.5046   ZY=     3.2872
   XZ=     5.5347   YZ=     8.8252   ZZ=   153.1501
   Eigenvalues:   136.5784   156.7993   168.2196
     63  C    Isotropic =   161.3864   Anisotropy =    12.6657
   XX=   160.0096   YX=     3.1404   ZX=     3.5468
   XY=     1.1796   YY=   164.9144   ZY=     9.3098
   XZ=     1.1623   YZ=     3.0024   ZZ=   159.2353
   Eigenvalues:   155.1350   159.1941   169.8302
     64  C    Isotropic =   169.4242   Anisotropy =     7.8821
   XX=   167.3851   YX=     0.7768   ZX=    -2.4148
   XY=     6.9726   YY=   172.4557   ZY=    -0.9730
   XZ=    -1.7729   YZ=     1.2682   ZZ=   168.4317
   Eigenvalues:   164.3726   169.2210   174.6789
     65  C    Isotropic =   162.8264   Anisotropy =    12.4964
   XX=   160.9927   YX=    -2.7723   ZX=    -1.8427
   XY=    -7.0056   YY=   168.6381   ZY=    -2.5465
   XZ=    -5.1774   YZ=     1.8990   ZZ=   158.8485
   Eigenvalues:   155.3815   161.9404   171.1574
     66  C    Isotropic =   168.8463   Anisotropy =     7.7465
   XX=   168.2086   YX=     2.3959   ZX=    -4.4634
   XY=    -0.1327   YY=   168.4226   ZY=     6.0111
   XZ=    -3.6481   YZ=     0.7884   ZZ=   169.9076
   Eigenvalues:   163.0796   169.4486   174.0106
     67  C    Isotropic =   157.8153   Anisotropy =    16.6669
   XX=   150.7207   YX=     3.4910   ZX=    -2.7298
   XY=     8.0991   YY=   159.0418   ZY=     4.3458
   XZ=    -1.3891   YZ=     9.6590   ZZ=   163.6833
   Eigenvalues:   146.1442   158.3751   168.9266
     68  H    Isotropic =    30.0887   Anisotropy =    10.0572
   XX=    27.3055   YX=     0.2704   ZX=     0.6041
   XY=     0.2037   YY=    36.7875   ZY=     0.6012
   XZ=     0.6182   YZ=    -0.5881   ZZ=    26.1730
   Eigenvalues:    25.9054    27.5672    36.7935
     69  H    Isotropic =    30.4609   Anisotropy =    10.1931
   XX=    33.6841   YX=     4.7298   ZX=    -1.1462
   XY=     4.9607   YY=    29.9235   ZY=    -1.1553
   XZ=    -1.2510   YZ=    -0.8492   ZZ=    27.7750
   Eigenvalues:    26.5831    27.5433    37.2563
     70  H    Isotropic =    30.0336   Anisotropy =     7.2313
   XX=    31.2846   YX=     0.1357   ZX=     4.2048
   XY=    -0.7981   YY=    28.2223   ZY=     0.2754
   XZ=     3.5857   YZ=     0.9676   ZZ=    30.5940
   Eigenvalues:    26.7186    28.5278    34.8545
     71  H    Isotropic =    30.3818   Anisotropy =     9.7842
   XX=    27.6614   YX=     1.3653   ZX=    -2.1523
   XY=     1.3026   YY=    27.2443   ZY=    -1.0256
   XZ=    -2.1144   YZ=    -0.9159   ZZ=    36.2395
   Eigenvalues:    26.0522    28.1885    36.9046
     72  H    Isotropic =    29.4507   Anisotropy =     6.6433
   XX=    31.6458   YX=     2.9022   ZX=    -1.8714
   XY=     3.0163   YY=    28.8500   ZY=     0.7861
   XZ=    -2.0613   YZ=     0.0597   ZZ=    27.8563
   Eigenvalues:    25.8391    28.6334    33.8796
     73  H    Isotropic =    29.2955   Anisotropy =     7.9181
   XX=    27.2127   YX=    -0.6521   ZX=     0.1924
   XY=    -0.7972   YY=    34.3771   ZY=     1.4630
   XZ=     0.3468   YZ=     0.6298   ZZ=    26.2968
   Eigenvalues:    26.0474    27.2650    34.5743
     74  H    Isotropic =    30.0597   Anisotropy =     9.5470
   XX=    28.8065   YX=    -4.1501   ZX=    -2.3747
   XY=    -3.1656   YY=    31.0882   ZY=     3.0436
   XZ=    -1.9409   YZ=     3.7818   ZZ=    30.2843
   Eigenvalues:    26.0773    27.6774    36.4244
     75  H    Isotropic =    30.4178   Anisotropy =     6.0424
   XX=    30.1860   YX=    -3.7881   ZX=     1.3215
   XY=    -3.1521   YY=    31.2614   ZY=     0.5130
   XZ=     1.9967   YZ=    -0.2017   ZZ=    29.8060
   Eigenvalues:    26.6098    30.1976    34.4461
     76  H    Isotropic =    29.3307   Anisotropy =     7.3098
   XX=    25.9931   YX=     1.7842   ZX=    -0.1155
   XY=     2.9154   YY=    27.8247   ZY=    -0.4298
   XZ=     0.2736   YZ=    -0.4270   ZZ=    34.1743
   Eigenvalues:    24.3773    29.4109    34.2039
     77  H    Isotropic =    28.2605   Anisotropy =     9.5004
   XX=    27.4978   YX=    -4.4087   ZX=    -1.0774
   XY=    -3.3315   YY=    31.3329   ZY=     2.2673
   XZ=    -0.5628   YZ=     3.1104   ZZ=    25.9507
   Eigenvalues:    24.4061    25.7812    34.5941
     78  H    Isotropic =    30.4862   Anisotropy =    10.1541
   XX=    27.1568   YX=     1.8679   ZX=     0.4126
   XY=     1.2145   YY=    33.6177   ZY=     4.3559
   XZ=     0.0173   YZ=     5.0326   ZZ=    30.6840
   Eigenvalues:    26.3570    27.8460    37.2556
     79  C    Isotropic =   151.9924   Anisotropy =    26.2440
   XX=   144.7189   YX=   -12.5083   ZX=     5.4009
   XY=    -8.6374   YY=   152.2708   ZY=    -1.8035
   XZ=    13.7558   YZ=    -8.6047   ZZ=   158.9874
   Eigenvalues:   136.0342   150.4545   169.4883
     80  C    Isotropic =   159.3481   Anisotropy =    14.5961
   XX=   154.6320   YX=     0.7376   ZX=     7.0789
   XY=     4.6064   YY=   156.0643   ZY=    -1.4585
   XZ=     2.2676   YZ=    -3.5830   ZZ=   167.3480
   Eigenvalues:   150.9009   158.0646   169.0788
     81  C    Isotropic =   168.2003   Anisotropy =    11.4238
   XX=   169.2976   YX=     4.8159   ZX=     5.7772
   XY=    -0.7006   YY=   163.9903   ZY=    -4.9015
   XZ=     4.3737   YZ=    -3.2676   ZZ=   171.3129
   Eigenvalues:   160.2109   168.5738   175.8162
     82  C    Isotropic =   165.2651   Anisotropy =    10.1602
   XX=   167.0346   YX=    -5.3096   ZX=    -4.4765
   XY=    -3.3279   YY=   164.9044   ZY=    -3.6102
   XZ=     2.9120   YZ=    -8.2203   ZZ=   163.8562
   Eigenvalues:   157.1385   166.6182   172.0386
     83  C    Isotropic =   169.1176   Anisotropy =     9.2729
   XX=   165.9719   YX=    -2.3890   ZX=     4.1305
   XY=     5.8543   YY=   167.3299   ZY=    -4.1096
   XZ=    -0.2222   YZ=    -1.6827   ZZ=   174.0511
   Eigenvalues:   163.7328   168.3205   175.2995
     84  C    Isotropic =   164.8397   Anisotropy =    10.4764
   XX=   163.1155   YX=     2.9318   ZX=    -2.8377
   XY=     1.0969   YY=   161.2192   ZY=    -4.5515
   XZ=    -0.1715   YZ=    -2.2325   ZZ=   170.1843
   Eigenvalues:   159.4593   163.2358   171.8239
     85  H    Isotropic =    30.5583   Anisotropy =     9.5353
   XX=    33.1804   YX=    -2.7703   ZX=     4.5110
   XY=    -1.8186   YY=    28.6301   ZY=    -0.9097
   XZ=     4.0462   YZ=    -1.5213   ZZ=    29.8645
   Eigenvalues:    26.8524    27.9074    36.9152
     86  H    Isotropic =    31.0498   Anisotropy =     8.9815
   XX=    29.1236   YX=     5.4811   ZX=     1.8197
   XY=     5.1447   YY=    31.8583   ZY=     1.3337
   XZ=     1.7819   YZ=     1.6117   ZZ=    32.1674
   Eigenvalues:    24.9646    31.1472    37.0374
     87  H    Isotropic =    30.6178   Anisotropy =     9.7624
   XX=    28.0710   YX=    -1.2007   ZX=    -2.5218
   XY=    -0.7944   YY=    28.9809   ZY=     3.1752
   XZ=    -3.0841   YZ=     3.0504   ZZ=    34.8013
   Eigenvalues:    27.0364    27.6909    37.1260
     88  H    Isotropic =    30.7355   Anisotropy =    11.3146
   XX=    29.1072   YX=     3.0077   ZX=    -3.7674
   XY=     3.6165   YY=    29.8721   ZY=    -3.1154
   XZ=    -4.3733   YZ=    -3.6188   ZZ=    33.2270
   Eigenvalues:    25.9618    27.9661    38.2785
     89  H    Isotropic =    29.6668   Anisotropy =     6.6019
   XX=    27.1486   YX=     2.7032   ZX=     1.8270
   XY=     4.3183   YY=    29.5631   ZY=     2.0301
   XZ=     1.0144   YZ=     0.5542   ZZ=    32.2886
   Eigenvalues:    24.6204    30.3118    34.0680
     90  H    Isotropic =    30.0172   Anisotropy =     9.9486
   XX=    30.3031   YX=    -4.4973   ZX=     4.4303
   XY=    -2.3466   YY=    27.0260   ZY=    -2.3194
   XZ=     0.9099   YZ=    -4.1412   ZZ=    32.7226
   Eigenvalues:    24.5900    28.8121    36.6496
     91  H    Isotropic =    30.2516   Anisotropy =    10.4581
   XX=    26.6391   YX=    -2.4359   ZX=    -0.5091
   XY=    -2.6288   YY=    33.9557   ZY=    -4.4546
   XZ=    -0.3311   YZ=    -4.4088   ZZ=    30.1601
   Eigenvalues:    24.9873    28.5439    37.2237
     92  H    Isotropic =    30.4254   Anisotropy =     6.7511
   XX=    30.1179   YX=    -4.3645   ZX=     0.4232
   XY=    -3.6175   YY=    31.6009   ZY=     0.4215
   XZ=     0.6341   YZ=    -0.0602   ZZ=    29.5575
   Eigenvalues:    26.7044    29.6457    34.9261
     93  H    Isotropic =    29.9535   Anisotropy =     7.9522
   XX=    30.6102   YX=     3.3910   ZX=    -1.6486
   XY=     3.6782   YY=    30.3641   ZY=    -3.0175
   XZ=    -0.0914   YZ=    -3.0502   ZZ=    28.8864
   Eigenvalues:    25.8045    28.8011    35.2550
     94  H    Isotropic =    31.9482   Anisotropy =    10.5124
   XX=    30.7153   YX=    -0.6333   ZX=     4.4479
   XY=    -0.9851   YY=    31.2217   ZY=    -4.2016
   XZ=     4.4241   YZ=    -3.9541   ZZ=    33.9076
   Eigenvalues:    26.6922    30.1959    38.9564
     95  H    Isotropic =    30.9690   Anisotropy =    11.0473
   XX=    28.9755   YX=    -0.5760   ZX=     3.4713
   XY=    -0.3594   YY=    28.1420   ZY=    -2.8671
   XZ=     3.7856   YZ=    -3.5724   ZZ=    35.7894
   Eigenvalues:    26.4670    28.1061    38.3338
 End of Minotr F.D. properties file   721 does not exist.
 End of Minotr F.D. properties file   722 does not exist.
 End of Minotr F.D. properties file   788 does not exist.
 Leave Link 1002 at Sat Aug 12 03:55:43 2023, MaxMem=  4026531840 cpu:            5034.6 elap:             172.3
 (Enter /sw/arch/Centos8/EB_production/2021/software/Gaussian/g16.c01/l601.exe)
 Copying SCF densities to generalized density rwf, IOpCl= 0 IROHF=0.

 **********************************************************************

            Population analysis using the SCF Density.

 **********************************************************************

 Alpha  occ. eigenvalues -- -256.35245 -77.17016 -77.16304 -30.12674 -25.97528
 Alpha  occ. eigenvalues --  -25.95687 -25.95570 -10.25310 -10.24360 -10.24286
 Alpha  occ. eigenvalues --  -10.24190 -10.24128 -10.24060 -10.24055 -10.24039
 Alpha  occ. eigenvalues --  -10.23987 -10.23892 -10.23833 -10.23353 -10.23343
 Alpha  occ. eigenvalues --  -10.23090 -10.22955 -10.22469 -10.22207 -10.22151
 Alpha  occ. eigenvalues --  -10.22118 -10.21953 -10.21938 -10.21932 -10.21905
 Alpha  occ. eigenvalues --  -10.21846 -10.21842 -10.21814 -10.21805 -10.21748
 Alpha  occ. eigenvalues --  -10.21729 -10.21659 -10.21627 -10.21585 -10.21547
 Alpha  occ. eigenvalues --  -10.21500 -10.21394 -10.21304  -6.58005  -6.57346
 Alpha  occ. eigenvalues --   -4.72099  -4.72006  -4.71494  -4.71418  -4.71386
 Alpha  occ. eigenvalues --   -4.70792  -3.45807  -2.24742  -2.20145  -2.19927
 Alpha  occ. eigenvalues --   -0.92009  -0.90245  -0.85059  -0.84879  -0.84402
 Alpha  occ. eigenvalues --   -0.84252  -0.80426  -0.77067  -0.76249  -0.75549
 Alpha  occ. eigenvalues --   -0.75492  -0.75196  -0.75176  -0.75019  -0.74807
 Alpha  occ. eigenvalues --   -0.73284  -0.73063  -0.72960  -0.71469  -0.66080
 Alpha  occ. eigenvalues --   -0.64974  -0.62461  -0.61982  -0.61737  -0.61713
 Alpha  occ. eigenvalues --   -0.61525  -0.61264  -0.60862  -0.59313  -0.58209
 Alpha  occ. eigenvalues --   -0.56606  -0.56012  -0.55596  -0.55229  -0.55047
 Alpha  occ. eigenvalues --   -0.54405  -0.54156  -0.52225  -0.50832  -0.50414
 Alpha  occ. eigenvalues --   -0.49624  -0.48871  -0.48470  -0.48011  -0.46650
 Alpha  occ. eigenvalues --   -0.46281  -0.45756  -0.45538  -0.45094  -0.44798
 Alpha  occ. eigenvalues --   -0.44602  -0.44434  -0.44215  -0.43621  -0.43362
 Alpha  occ. eigenvalues --   -0.43054  -0.42489  -0.42149  -0.41817  -0.41553
 Alpha  occ. eigenvalues --   -0.41333  -0.40525  -0.40429  -0.40091  -0.39777
 Alpha  occ. eigenvalues --   -0.39576  -0.39562  -0.39410  -0.39261  -0.39220
 Alpha  occ. eigenvalues --   -0.38976  -0.38724  -0.38663  -0.38605  -0.38305
 Alpha  occ. eigenvalues --   -0.37990  -0.37623  -0.37557  -0.37104  -0.36565
 Alpha  occ. eigenvalues --   -0.34927  -0.34769  -0.34609  -0.34440  -0.34041
 Alpha  occ. eigenvalues --   -0.33453  -0.33260  -0.32847  -0.32238  -0.31786
 Alpha  occ. eigenvalues --   -0.31248  -0.31180  -0.30986  -0.30789  -0.30756
[...]
   434. RY*(   1) H  51                  0.00333     0.39084   
   435. RY*(   1) H  52                  0.00235     0.36980   
   436. RY*(   1) H  53                  0.00223     0.36650   
   437. RY*(   1) H  54                  0.00237     0.37158   
   438. RY*(   1) H  55                  0.00350     0.62470   
   439. RY*(   1) H  56                  0.00276     0.50059   
   440. RY*(   1) H  57                  0.00382     0.39936   
   441. RY*(   1) H  58                  0.00286     0.43833   
   442. RY*(   1) H  59                  0.00284     0.48920   
   443. RY*(   1) H  60                  0.00312     0.56143   
   444. RY*(   1) H  61                  0.00315     0.38920   
   445. RY*(   1) C  62                  0.00504     1.01970   
   446. RY*(   2) C  62                  0.00338     1.08235   
   447. RY*(   3) C  62                  0.00326     0.83850   
   448. RY*(   4) C  62                  0.00081     1.43470   
   449. RY*(   5) C  62                  0.00053     1.77731   
   450. RY*(   6) C  62                  0.00035     1.75557   
   451. RY*(   7) C  62                  0.00022     1.95383   
   452. RY*(   8) C  62                  0.00020     2.04065   
   453. RY*(   9) C  62                  0.00007     2.10748   
   454. RY*(   1) C  63                  0.00688     1.02325   
   455. RY*(   2) C  63                  0.00241     0.92652   
   456. RY*(   3) C  63                  0.00165     0.78658   
   457. RY*(   4) C  63                  0.00107     1.08011   
   458. RY*(   5) C  63                  0.00030     1.88505   
   459. RY*(   6) C  63                  0.00016     2.15624   
   460. RY*(   7) C  63                  0.00005     1.93595   
   461. RY*(   8) C  63                  0.00004     2.01244   
   462. RY*(   9) C  63                  0.00001     1.96112   
   463. RY*(   1) C  64                  0.00542     1.04931   
   464. RY*(   2) C  64                  0.00167     1.03063   
   465. RY*(   3) C  64                  0.00155     0.80169   
   466. RY*(   4) C  64                  0.00056     1.07395   
   467. RY*(   5) C  64                  0.00033     1.87528   
   468. RY*(   6) C  64                  0.00016     2.09741   
   469. RY*(   7) C  64                  0.00012     1.88607   
   470. RY*(   8) C  64                  0.00003     1.95371   
   471. RY*(   9) C  64                  0.00004     2.04130   
   472. RY*(   1) C  65                  0.00501     1.11219   
   473. RY*(   2) C  65                  0.00168     1.15678   
   474. RY*(   3) C  65                  0.00129     0.69256   
   475. RY*(   4) C  65                  0.00049     1.10473   
   476. RY*(   5) C  65                  0.00030     1.80675   
   477. RY*(   6) C  65                  0.00015     2.22457   
   478. RY*(   7) C  65                  0.00008     1.77818   
   479. RY*(   8) C  65                  0.00001     1.82684   
   480. RY*(   9) C  65                  0.00002     2.04445   
   481. RY*(   1) C  66                  0.00540     1.05402   
   482. RY*(   2) C  66                  0.00150     1.15237   
   483. RY*(   3) C  66                  0.00119     0.76881   
   484. RY*(   4) C  66                  0.00055     1.09209   
   485. RY*(   5) C  66                  0.00033     1.86494   
   486. RY*(   6) C  66                  0.00015     2.23600   
   487. RY*(   7) C  66                  0.00009     1.63869   
   488. RY*(   8) C  66                  0.00002     1.92344   
   489. RY*(   9) C  66                  0.00003     1.98771   
   490. RY*(   1) C  67                  0.00754     1.02530   
   491. RY*(   2) C  67                  0.00233     0.95035   
   492. RY*(   3) C  67                  0.00125     0.71813   
   493. RY*(   4) C  67                  0.00085     1.09388   
   494. RY*(   5) C  67                  0.00030     1.88066   
   495. RY*(   6) C  67                  0.00017     2.11886   
   496. RY*(   7) C  67                  0.00008     2.00795   
   497. RY*(   8) C  67                  0.00002     1.89438   
   498. RY*(   9) C  67                  0.00001     2.06851   
   499. RY*(   1) H  68                  0.00384     0.39565   
   500. RY*(   1) H  69                  0.00226     0.38586   
   501. RY*(   1) H  70                  0.00208     0.42490   
   502. RY*(   1) H  71                  0.00229     0.37177   
   503. RY*(   1) H  72                  0.00266     0.46412   
   504. RY*(   1) H  73                  0.00446     0.66760   
   505. RY*(   1) H  74                  0.00328     0.39397   
   506. RY*(   1) H  75                  0.00327     0.43606   
   507. RY*(   1) H  76                  0.00241     0.55039   
   508. RY*(   1) H  77                  0.00781     0.75485   
   509. RY*(   1) H  78                  0.00321     0.39125   
   510. RY*(   1) C  79                  0.00527     0.98753   
   511. RY*(   2) C  79                  0.00408     1.07730   
   512. RY*(   3) C  79                  0.00336     0.79805   
   513. RY*(   4) C  79                  0.00083     1.37426   
   514. RY*(   5) C  79                  0.00058     1.93127   
   515. RY*(   6) C  79                  0.00033     1.83821   
   516. RY*(   7) C  79                  0.00022     1.86853   
   517. RY*(   8) C  79                  0.00018     2.03044   
   518. RY*(   9) C  79                  0.00006     2.13360   
   519. RY*(   1) C  80                  0.00714     1.05845   
   520. RY*(   2) C  80                  0.00235     0.96859   
   521. RY*(   3) C  80                  0.00130     0.74433   
   522. RY*(   4) C  80                  0.00090     1.11514   
   523. RY*(   5) C  80                  0.00029     1.88012   
   524. RY*(   6) C  80                  0.00018     2.13526   
   525. RY*(   7) C  80                  0.00007     1.98360   
   526. RY*(   8) C  80                  0.00002     1.92095   
   527. RY*(   9) C  80                  0.00002     2.08524   
   528. RY*(   1) C  81                  0.00553     1.07303   
   529. RY*(   2) C  81                  0.00164     1.12002   
   530. RY*(   3) C  81                  0.00131     0.81018   
   531. RY*(   4) C  81                  0.00057     1.07376   
   532. RY*(   5) C  81                  0.00031     1.85581   
   533. RY*(   6) C  81                  0.00021     1.71156   
   534. RY*(   7) C  81                  0.00016     2.23405   
   535. RY*(   8) C  81                  0.00004     1.92507   
   536. RY*(   9) C  81                  0.00002     2.07344   
   537. RY*(   1) C  82                  0.00560     1.07222   
   538. RY*(   2) C  82                  0.00177     1.09608   
   539. RY*(   3) C  82                  0.00125     0.69688   
   540. RY*(   4) C  82                  0.00047     1.01925   
   541. RY*(   5) C  82                  0.00032     1.83276   
   542. RY*(   6) C  82                  0.00014     2.23053   
   543. RY*(   7) C  82                  0.00007     1.78016   
   544. RY*(   8) C  82                  0.00001     1.99423   
   545. RY*(   9) C  82                  0.00001     1.88893   
   546. RY*(   1) C  83                  0.00509     1.04178   
   547. RY*(   2) C  83                  0.00163     1.12963   
   548. RY*(   3) C  83                  0.00125     0.72745   
   549. RY*(   4) C  83                  0.00051     1.12935   
   550. RY*(   5) C  83                  0.00036     1.80714   
   551. RY*(   6) C  83                  0.00015     2.18823   
   552. RY*(   7) C  83                  0.00007     1.78363   
   553. RY*(   8) C  83                  0.00002     1.95600   
   554. RY*(   9) C  83                  0.00002     1.94688   
   555. RY*(   1) C  84                  0.00675     0.99669   
   556. RY*(   2) C  84                  0.00263     0.89723   
   557. RY*(   3) C  84                  0.00173     0.81718   
   558. RY*(   4) C  84                  0.00103     1.07947   
   559. RY*(   5) C  84                  0.00036     1.88922   
   560. RY*(   6) C  84                  0.00016     2.13032   
   561. RY*(   7) C  84                  0.00005     1.91129   
   562. RY*(   8) C  84                  0.00004     2.08455   
   563. RY*(   9) C  84                  0.00002     1.95808   
   564. RY*(   1) H  85                  0.00326     0.39969   
   565. RY*(   1) H  86                  0.00246     0.43941   
   566. RY*(   1) H  87                  0.00227     0.37189   
   567. RY*(   1) H  88                  0.00234     0.37364   
   568. RY*(   1) H  89                  0.00222     0.55682   
   569. RY*(   1) H  90                  0.00379     0.54478   
   570. RY*(   1) H  91                  0.00350     0.39108   
   571. RY*(   1) H  92                  0.00316     0.44373   
   572. RY*(   1) H  93                  0.00388     0.59775   
   573. RY*(   1) H  94                  0.00473     0.66223   
   574. RY*(   1) H  95                  0.00316     0.39382   
   587. BD*(   1) C  12 - C  13          0.02458     0.53612   
   588. BD*(   1) C  12 - C  16          0.02860     0.51780   
   589. BD*(   2) C  12 - C  16          0.47780     0.04464  592(v),168(v),580(r),588(g)
                                                    162(r),165(r),228(g),265(g)
                                                    166(r),229(g),263(g),577(r)
                                                    226(r),158(r),224(r),190(r)
                                                    193(r)
   590. BD*(   1) C  12 - H  17          0.01733     0.48677   
   591. BD*(   1) C  13 - C  14          0.04866     0.49968   
   592. BD*(   2) C  13 - C  14          0.54195     0.02214  589(v),168(v),162(r),591(g)
                                                    165(r),595(g),603(v),601(v)
                                                    577(r),163(r),599(v),247(g)
                                                    602(v),238(g),237(g),241(g)
                                                    158(r),167(r),224(r),223(r)
                                                    225(r),580(r),164(r)
   593. BD*(   1) C  13 - C  20          0.03556     0.45213   
   594. BD*(   1) C  14 - C  15          0.03750     0.51602   
   595. BD*(   1) C  14 - P  22          0.04673     0.27406   
   596. BD*(   1) C  15 - C  16          0.03336     0.53171   
   597. BD*(   1) C  15 - H  18          0.01754     0.49571   
   598. BD*(   1) C  16 - H  19          0.01711     0.48868   
   599. BD*(   1) C  20 - H  21          0.02230     0.47130   
   600. BD*(   1) C  20 - C  23          0.02289     0.41836   
   601. BD*(   1) C  20 - P  27          0.04660     0.23977   
   602. BD*(   1) P  22 - C  62          0.04622     0.24481   
   603. BD*(   1) P  22 - C  79          0.04101     0.22958   
   604. BD*(   1) C  23 - H  24          0.01083     0.49752   
   605. BD*(   1) C  23 - H  25          0.01404     0.47520   
   606. BD*(   1) C  23 - H  26          0.01144     0.47529   
   607. BD*(   1) P  27 - C  28          0.04447     0.23786   
   608. BD*(   1) P  27 - C  45          0.05216     0.23912   
   609. BD*(   1) C  28 - C  29          0.02364     0.42158   
   610. BD*(   1) C  28 - C  33          0.03757     0.42400   
   611. BD*(   1) C  28 - H  41          0.01864     0.50376   
   612. BD*(   1) C  29 - C  30          0.01836     0.43533   
   613. BD*(   1) C  29 - H  34          0.01971     0.46656   
   614. BD*(   1) C  29 - H  42          0.01526     0.49051   
   615. BD*(   1) C  30 - C  31          0.01766     0.42886   
   616. BD*(   1) C  30 - H  35          0.01314     0.48105   
   617. BD*(   1) C  30 - H  43          0.01838     0.48043   
   618. BD*(   1) C  31 - C  32          0.01776     0.42912   
   619. BD*(   1) C  31 - H  36          0.01314     0.48141   
   620. BD*(   1) C  31 - H  44          0.01805     0.46590   
   621. BD*(   1) C  32 - C  33          0.01864     0.43889   
   622. BD*(   1) C  32 - H  37          0.01317     0.47923   
   623. BD*(   1) C  32 - H  39          0.02034     0.48532   
   624. BD*(   1) C  33 - H  38          0.01603     0.50212   
   625. BD*(   1) C  33 - H  40          0.02085     0.46218   
   626. BD*(   1) C  45 - C  46          0.02277     0.40304   
   627. BD*(   1) C  45 - C  50          0.03958     0.41960   
   628. BD*(   1) C  45 - H  58          0.01589     0.47338   
   629. BD*(   1) C  46 - C  47          0.01807     0.42941   
   630. BD*(   1) C  46 - H  51          0.01816     0.46484   
   631. BD*(   1) C  46 - H  59          0.01528     0.48240   
   632. BD*(   1) C  47 - C  48          0.01840     0.42862   
   633. BD*(   1) C  47 - H  52          0.01309     0.47744   
   634. BD*(   1) C  47 - H  60          0.01949     0.47901   
   635. BD*(   1) C  48 - C  49          0.01777     0.42994   
   636. BD*(   1) C  48 - H  53          0.01319     0.47964   
   637. BD*(   1) C  48 - H  61          0.01849     0.46344   
   638. BD*(   1) C  49 - C  50          0.01987     0.43658   
   639. BD*(   1) C  49 - H  54          0.01320     0.47841   
   640. BD*(   1) C  49 - H  56          0.01995     0.48092   
   641. BD*(   1) C  50 - H  55          0.01656     0.50357   
   642. BD*(   1) C  50 - H  57          0.01890     0.45839   
   643. BD*(   1) C  62 - C  63          0.03502     0.42285   
   644. BD*(   1) C  62 - C  67          0.02485     0.41741   
   645. BD*(   1) C  62 - H  75          0.01662     0.46944   
   646. BD*(   1) C  63 - C  64          0.01835     0.43984   
   647. BD*(   1) C  63 - H  68          0.02062     0.46380   
   648. BD*(   1) C  63 - H  76          0.01594     0.49627   
   649. BD*(   1) C  64 - C  65          0.01783     0.43406   
   650. BD*(   1) C  64 - H  69          0.01368     0.48023   
   651. BD*(   1) C  64 - H  77          0.02359     0.51338   
   652. BD*(   1) C  65 - C  66          0.01804     0.43103   
   653. BD*(   1) C  65 - H  70          0.01430     0.47964   
   654. BD*(   1) C  65 - H  78          0.01952     0.46778   
   655. BD*(   1) C  66 - C  67          0.01786     0.43972   
   656. BD*(   1) C  66 - H  71          0.01364     0.48237   
   657. BD*(   1) C  66 - H  73          0.02066     0.48531   
   658. BD*(   1) C  67 - H  72          0.01460     0.48757   
   659. BD*(   1) C  67 - H  74          0.01902     0.46849   
   660. BD*(   1) C  79 - C  80          0.02372     0.41850   
   661. BD*(   1) C  79 - C  84          0.03658     0.41238   
   662. BD*(   1) C  79 - H  92          0.01530     0.46572   
   663. BD*(   1) C  80 - C  81          0.01827     0.43641   
   664. BD*(   1) C  80 - H  85          0.01921     0.46733   
   665. BD*(   1) C  80 - H  93          0.01566     0.49983   
   666. BD*(   1) C  81 - C  82          0.01815     0.43910   
   667. BD*(   1) C  81 - H  86          0.01381     0.48427   
   668. BD*(   1) C  81 - H  94          0.01900     0.48620   
   669. BD*(   1) C  82 - C  83          0.01740     0.43791   
   670. BD*(   1) C  82 - H  87          0.01368     0.48388   
   671. BD*(   1) C  82 - H  95          0.01930     0.46777   
   672. BD*(   1) C  83 - C  84          0.01887     0.42925   
   673. BD*(   1) C  83 - H  88          0.01322     0.47949   
   674. BD*(   1) C  83 - H  90          0.01926     0.49396   
   675. BD*(   1) C  84 - H  89          0.01525     0.49086   
   676. BD*(   1) C  84 - H  91          0.01700     0.46335   
       -------------------------------
              Total Lewis  263.56939  ( 98.6941%)
        Valence non-Lewis    2.91553  (  1.0917%)
        Rydberg non-Lewis    0.57192  (  0.2142%)
       -------------------------------
            Total unit  3  267.05684  (100.0000%)
           Charge unit  3   -0.05684


 NATURAL LOCALIZED MOLECULAR ORBITAL (NLMO) ANALYSIS:

 Highest occupied NBOs are not at the beginning of the NBO list;
 The NLMO program is not currently set up to handle this.
 Leave Link  607 at Sat Aug 12 03:57:56 2023, MaxMem=  4026531840 cpu:             107.1 elap:               3.5
 (Enter /sw/arch/Centos8/EB_production/2021/software/Gaussian/g16.c01/l9999.exe)
 Unable to Open any file for archive entry.
 1\1\GINC-TCN447\SP\RPBE1PBE\def2SVPP\C36H56Fe1P2\ADARSH\12-Aug-2023\0\
 \#p pop=nbo NMR pbe1pbe/def2svpp empiricaldispersion=gd3bj integral=gr
 id=ultrafinegrid scf=(xqc,maxconventionalcycles=90) nosymm\\Cisa\\0,1\
 C,0,-4.08025,-0.12936,-1.75438\C,0,-5.00973,-0.38056,-0.70615\C,0,-5.3
 5687,0.87233,-0.12728\C,0,-4.6376,1.89189,-0.81454\C,0,-3.8445,1.26959
 ,-1.82063\H,0,-3.63454,-0.87495,-2.40597\H,0,-5.3885,-1.35515,-0.39932
 \H,0,-6.03421,1.02483,0.71325\H,0,-4.67706,2.95857,-0.59132\H,0,-3.180
 32,1.77089,-2.5253\Fe,0,-3.34567,0.56869,0.05545\C,0,-2.41281,1.8121,1
 .36301\C,0,-1.44987,1.17144,0.52304\C,0,-1.5374,-0.25397,0.76993\C,0,-
 2.64194,-0.45326,1.66553\C,0,-3.14654,0.81265,2.06202\H,0,-2.61322,2.8
 8142,1.40775\H,0,-3.0064,-1.42194,2.0013\H,0,-3.98327,0.98981,2.73777\
 C,0,-0.60412,1.8642,-0.51623\H,0,-0.70357,1.27784,-1.44694\P,0,-0.1175
 1,-1.38906,0.65312\C,0,-1.10741,3.27766,-0.79737\H,0,-0.65432,3.6842,-
 1.70601\H,0,-2.19709,3.25508,-0.9515\H,0,-0.89708,3.9837,0.01722\P,0,1
 .21772,1.69856,-0.14667\C,0,1.38468,2.31509,1.61822\C,0,2.80045,2.1978
 8,2.18954\C,0,3.68056,3.38595,1.81681\C,0,3.04994,4.7058,2.26246\C,0,1
 .60753,4.86815,1.78132\C,0,0.7692,3.63658,2.09273\H,0,2.70123,2.16444,
 3.29142\H,0,4.67583,3.27279,2.2807\H,0,3.66444,5.55801,1.92435\H,0,1.1
 5321,5.75248,2.2606\H,0,-0.26414,3.75351,1.73843\H,0,1.58156,5.06962,0
 .69635\H,0,0.68846,3.53852,3.19286\H,0,0.77585,1.51551,2.07464\H,0,3.2
 6076,1.24096,1.89666\H,0,3.85183,3.39791,0.72439\H,0,3.05847,4.73948,3
 .36844\C,0,2.22508,2.52097,-1.508\C,0,1.85187,1.89465,-2.87147\C,0,0.8
 5674,2.6938,-3.70829\C,0,1.29506,4.14641,-3.87324\C,0,1.55419,4.82829,
 -2.53245\C,0,2.5166,4.02356,-1.66727\H,0,2.78838,1.82438,-3.45734\H,0,
 0.76882,2.21365,-4.69827\H,0,0.54442,4.71015,-4.45344\H,0,1.99005,5.82
 812,-2.70089\H,0,2.65389,4.50599,-0.69019\H,0,0.60708,5.00829,-1.99807
 \H,0,3.50885,4.06885,-2.15627\H,0,3.19697,2.0844,-1.22719\H,0,1.49417,
 0.85581,-2.73804\H,0,-0.15265,2.64427,-3.26552\H,0,2.22696,4.16828,-4.
 4703\C,0,-0.41931,-2.9682,-0.29973\C,0,-1.71061,-3.76602,-0.07656\C,0,
 -2.88967,-3.26062,-0.89497\C,0,-2.53753,-3.17892,-2.37603\C,0,-1.32399
 ,-2.27939,-2.58638\C,0,-0.1294,-2.79541,-1.79901\H,0,-1.49271,-4.80975
 ,-0.37466\H,0,-3.75827,-3.92348,-0.7369\H,0,-3.40219,-2.82633,-2.96516
 \H,0,-1.06241,-2.21706,-3.65706\H,0,0.73835,-2.12372,-1.93966\H,0,-1.5
 5621,-1.25014,-2.25145\H,0,0.16074,-3.78545,-2.20129\H,0,0.40193,-3.57
 1,0.12799\H,0,-1.97297,-3.81017,0.99189\H,0,-3.17411,-2.25909,-0.53275
 \H,0,-2.30749,-4.19165,-2.75913\C,0,0.26024,-2.01586,2.39387\C,0,1.104
 27,-1.00649,3.18937\C,0,0.28168,-0.07353,4.068\C,0,-0.50683,-0.88428,5
 .08704\C,0,-1.46811,-1.81911,4.36628\C,0,-0.78217,-2.69408,3.31256\H,0
 ,1.78136,-1.58058,3.85167\H,0,0.95231,0.64583,4.57023\H,0,-1.06675,-0.
 22222,5.76956\H,0,-1.97463,-2.48442,5.08706\H,0,-1.53998,-3.23886,2.72
 787\H,0,-2.25773,-1.20332,3.91118\H,0,-0.22199,-3.47783,3.8566\H,0,0.9
 4556,-2.82538,2.08299\H,0,1.7581,-0.44121,2.49937\H,0,-0.42342,0.51673
 ,3.45131\H,0,0.19706,-1.46314,5.71518\\Version=ES64L-G16RevC.01\HF=-33
 48.4631319\RMSD=6.470e-09\Dipole=-0.3707137,0.2546965,0.221756\Quadrup
 ole=-1.5379108,2.3892101,-0.8512993,-0.3588277,-4.6577674,-0.6241476\P
 G=C01 [X(C36H56Fe1P2)]\\@
 The archive entry for this job was punched.


 WHEN ALL ELSE FAILS, LOOK AT THE SCHRODINGER EQUATION.
     -- RUSSELL T. PACK, APRIL 1978
 Job cpu time:       0 days  3 hours 18 minutes 44.7 seconds.
 Elapsed time:       0 days  0 hours  8 minutes 27.2 seconds.
 File lengths (MBytes):  RWF=    496 Int=      0 D2E=      0 Chk=     40 Scr=     32
 Normal termination of Gaussian 16 at Sat Aug 12 03:57:56 2023.
