 Entering Gaussian System, Link 0=g16
 Input=free_ligand_L18_SP.inp
 Output=free_ligand_L18_SP.log
 Initial command:
 /sw/arch/RHEL8/EB_production/2022/software/Gaussian/g16.c02/l1.exe "/scratch-local/adarsh.3962527/Gau-2118073.inp" -scrdir="/scratch-local/adarsh.3962527/"
 Entering Link 1 = /sw/arch/RHEL8/EB_production/2022/software/Gaussian/g16.c02/l1.exe PID=   2118076.
  
 Copyright (c) 1988-2021, Gaussian, Inc.  All Rights Reserved.
  
 This is part of the Gaussian(R) 16 program.  It is based on
 the Gaussian(R) 09 system (copyright 2009, Gaussian, Inc.),
 the Gaussian(R) 03 system (copyright 2003, Gaussian, Inc.),
 the Gaussian(R) 98 system (copyright 1998, Gaussian, Inc.),
 the Gaussian(R) 94 system (copyright 1995, Gaussian, Inc.),
 the Gaussian 92(TM) system (copyright 1992, Gaussian, Inc.),
 the Gaussian 90(TM) system (copyright 1990, Gaussian, Inc.),
 the Gaussian 88(TM) system (copyright 1988, Gaussian, Inc.),
 the Gaussian 86(TM) system (copyright 1986, Carnegie Mellon
 University), and the Gaussian 82(TM) system (copyright 1983,
 Carnegie Mellon University). Gaussian is a federally registered
 trademark of Gaussian, Inc.
  
 This software contains proprietary and confidential information,
 including trade secrets, belonging to Gaussian, Inc.
  
 This software is provided under written license and may be
 used, copied, transmitted, or stored only in accord with that
 written license.
  
 The following legend is applicable only to US Government
 contracts under FAR:
  
                    RESTRICTED RIGHTS LEGEND
  
 Use, reproduction and disclosure by the US Government is
 subject to restrictions as set forth in subparagraphs (a)
 and (c) of the Commercial Computer Software - Restricted
 Rights clause in FAR 52.227-19.
  
 Gaussian, Inc.
 340 Quinnipiac St., Bldg. 40, Wallingford CT 06492
  
  
 ---------------------------------------------------------------
 Warning -- This program may not be used in any manner that
 competes with the business of Gaussian, Inc. or will provide
 assistance to any competitor of Gaussian, Inc.  The licensee
 of this program is prohibited from giving any competitor of
 Gaussian, Inc. access to this program.  By using this program,
 the user acknowledges that Gaussian, Inc. is engaged in the
 business of creating and licensing software in the field of
 computational chemistry and represents and warrants to the
 licensee that it is not a competitor of Gaussian, Inc. and that
 it will not use this program in any manner prohibited above.
 ---------------------------------------------------------------
  

 Cite this work as:
 Gaussian 16, Revision C.02,
 M. J. Frisch, G. W. Trucks, H. B. Schlegel, G. E. Scuseria, 
 M. A. Robb, J. R. Cheeseman, G. Scalmani, V. Barone, 
 G. A. Petersson, H. Nakatsuji, X. Li, M. Caricato, A. V. Marenich, 
 J. Bloino, B. G. Janesko, R. Gomperts, B. Mennucci, H. P. Hratchian, 
 J. V. Ortiz, A. F. Izmaylov, J. L. Sonnenberg, D. Williams-Young, 
 F. Ding, F. Lipparini, F. Egidi, J. Goings, B. Peng, A. Petrone, 
 T. Henderson, D. Ranasinghe, V. G. Zakrzewski, J. Gao, N. Rega, 
 G. Zheng, W. Liang, M. Hada, M. Ehara, K. Toyota, R. Fukuda, 
 J. Hasegawa, M. Ishida, T. Nakajima, Y. Honda, O. Kitao, H. Nakai, 
 T. Vreven, K. Throssell, J. A. Montgomery, Jr., J. E. Peralta, 
 F. Ogliaro, M. J. Bearpark, J. J. Heyd, E. N. Brothers, K. N. Kudin, 
 V. N. Staroverov, T. A. Keith, R. Kobayashi, J. Normand, 
 K. Raghavachari, A. P. Rendell, J. C. Burant, S. S. Iyengar, 
 J. Tomasi, M. Cossi, J. M. Millam, M. Klene, C. Adamo, R. Cammi, 
 J. W. Ochterski, R. L. Martin, K. Morokuma, O. Farkas, 
 J. B. Foresman, and D. J. Fox, Gaussian, Inc., Wallingford CT, 2019.
 
 ******************************************
 Gaussian 16:  ES64L-G16RevC.02  7-Dec-2021
                29-Sep-2023 
 ******************************************
 %nprocshared=32
 Will use up to   32 processors via shared memory.
 %mem=30GB
 %chk=free_ligand_L18.chk
 ----------------------------------------------------------------------
 #p pop=nbo pbe1pbe/def2svpp empiricaldispersion=gd3bj integral=grid=ul
 trafinegrid scf=(xqc,maxconventionalcycles=90) nosymm
 ----------------------------------------------------------------------
 1/38=1,172=1/1;
 2/12=2,15=1,17=6,18=5,40=1/2;
 3/5=43,7=202,11=2,25=1,30=1,74=-13,75=-5,124=41/1,2,3;
 4//1;
 5/5=2,8=3,13=1,38=5,85=90/2,8;
 6/7=2,8=2,9=2,10=2,28=1,40=1/1,7;
 99/5=1,9=1/99;
 Leave Link    1 at Fri Sep 29 19:31:42 2023, MaxMem=  4026531840 cpu:               0.1 elap:               0.6
 (Enter /sw/arch/RHEL8/EB_production/2022/software/Gaussian/g16.c02/l101.exe)
 ----
 Cisa
 ----
 Symbolic Z-matrix:
 Charge =  0 Multiplicity = 1
 C                    -5.041     0.06576  -0.80151 
 C                    -5.14755   1.46915  -0.58234 
 C                    -4.2367    2.1241   -1.46014 
 C                    -3.56095   1.12629  -2.21879 
 C                    -4.06901  -0.14216  -1.81703 
 H                    -5.59926  -0.71091  -0.27847 
 H                    -5.7946    1.95718   0.14682 
 H                    -4.07487   3.20065  -1.51934 
 H                    -2.80065   1.29939  -2.98163 
 H                    -3.77338  -1.10679  -2.22451 
 Fe                   -3.23753   0.86269  -0.20111 
 C                    -2.31595   2.17835   1.04684 
 C                    -1.34617   1.44346   0.30257 
 C                    -1.49817   0.04375   0.62896 
 C                    -2.62603  -0.0446    1.5196 
 C                    -3.10147   1.26176   1.79452 
 H                    -2.48064   3.25356   1.00446 
 H                    -3.0453   -0.95688   1.9366 
 H                    -3.95341   1.5133    2.42597 
 C                    -0.36252   2.01473  -0.67091 
 H                    -0.35331   1.34034  -1.54102 
 P                    -0.21642  -1.24843   0.39447 
 C                    -0.73001   3.40604  -1.18434 
 H                     0.0983    3.8738   -1.73652 
 H                    -1.59506   3.32197  -1.86233 
 H                    -1.01797   4.10351  -0.38488 
 P                     1.38742   1.75017  -0.03611 
 C                     1.44023   2.43892   1.66731 
 C                     1.3808    3.63269   4.21363 
 C                     2.20952   2.54773   3.95617 
 C                     2.26772   1.93677   2.69526 
 C                     0.62359   3.54928   1.9367 
 C                     0.5848    4.14404   3.19116 
 H                     1.36148   4.08244   5.2104 
 H                     2.8425    2.15219   4.75649 
 H                     0.0116    3.97256   1.14304 
 H                    -0.06495   5.00565   3.36679 
 C                     2.4116    2.92407  -1.00569 
 C                     4.07616   4.70419  -2.39413 
 C                     4.09212   4.68574  -1.00282 
 C                     3.26177   3.80184  -0.31845 
 C                     2.40195   2.92619  -2.42261 
 C                     3.24052   3.83015  -3.0853 
 H                     4.7184    5.39575  -2.94666 
 H                     4.74607   5.3611   -0.44443 
 H                     3.26882   3.80207   0.77448 
 H                     3.23855   3.84167  -4.1799 
 C                    -1.03373  -2.527    -0.73642 
 C                    -2.47896  -2.84452  -0.34656 
 H                    -2.54402  -3.44018   0.57466 
 H                    -3.07708  -1.93081  -0.22336 
 H                    -2.93875  -3.44435  -1.15384 
 C                    -1.02711  -1.84722  -2.11187 
 H                    -1.57065  -0.88964  -2.07194 
 H                    -0.00669  -1.63223  -2.46553 
 H                    -1.52527  -2.49623  -2.8554 
 C                    -0.24296  -3.83548  -0.77389 
 H                     0.82105  -3.69704  -1.00659 
 H                    -0.31475  -4.38559   0.17805 
 H                    -0.67029  -4.48814  -1.55678 
 C                     0.01174  -1.93071   2.17152 
 C                    -1.06959  -2.89971   2.65373 
 H                    -2.08339  -2.47765   2.62341 
 H                    -1.06784  -3.84733   2.09343 
 H                    -0.85719  -3.1482    3.70971 
 C                     1.35287  -2.66461   2.24996 
 H                     1.37481  -3.55998   1.60791 
 H                     2.19524  -2.00969   1.97508 
 H                     1.51049  -3.00591   3.28901 
 C                     0.06352  -0.72657   3.11733 
 H                     0.73315   0.06449   2.75093 
 H                    -0.92583  -0.27167   3.27239 
 H                     0.44087  -1.06076   4.10071 
 C                     3.2367    0.80823   2.51561 
 H                     2.90095   0.09475   1.74094 
 H                     4.22686   1.19237   2.20835 
 H                     3.37935   0.25727   3.45918 
 C                     1.5444    2.00904  -3.25454 
 H                     1.39914   1.02266  -2.7769 
 H                     0.54562   2.44282  -3.43966 
 H                     2.0067    1.84107  -4.24091 
 
 ITRead=  0  0  0  0  0  0  0  0  0  0  0  0  0  0  0  0  0  0  0  0
 ITRead=  0  0  0  0  0  0  0  0  0  0  0  0  0  0  0  0  0  0  0  0
 ITRead=  0  0  0  0  0  0  0  0  0  0  0  0  0  0  0  0  0  0  0  0
 ITRead=  0  0  0  0  0  0  0  0  0  0  0  0  0  0  0  0  0  0  0  0
 ITRead=  0
 MicOpt= -1 -1 -1 -1 -1 -1 -1 -1 -1 -1 -1 -1 -1 -1 -1 -1 -1 -1 -1 -1
 MicOpt= -1 -1 -1 -1 -1 -1 -1 -1 -1 -1 -1 -1 -1 -1 -1 -1 -1 -1 -1 -1
 MicOpt= -1 -1 -1 -1 -1 -1 -1 -1 -1 -1 -1 -1 -1 -1 -1 -1 -1 -1 -1 -1
 MicOpt= -1 -1 -1 -1 -1 -1 -1 -1 -1 -1 -1 -1 -1 -1 -1 -1 -1 -1 -1 -1
 MicOpt= -1
 NAtoms=     81 NQM=       81 NQMF=       0 NMMI=      0 NMMIF=      0
                NMic=       0 NMicF=      0.
                    Isotopes and Nuclear Properties:
 (Nuclear quadrupole moments (NQMom) in fm**2, nuclear magnetic moments (NMagM)
  in nuclear magnetons)

  Atom         1           2           3           4           5           6           7           8           9          10
 IAtWgt=          12          12          12          12          12           1           1           1           1           1
 AtmWgt=  12.0000000  12.0000000  12.0000000  12.0000000  12.0000000   1.0078250   1.0078250   1.0078250   1.0078250   1.0078250
 NucSpn=           0           0           0           0           0           1           1           1           1           1
 AtZEff=  -0.0000000  -0.0000000  -0.0000000  -0.0000000  -0.0000000  -0.0000000  -0.0000000  -0.0000000  -0.0000000  -0.0000000
 NQMom=    0.0000000   0.0000000   0.0000000   0.0000000   0.0000000   0.0000000   0.0000000   0.0000000   0.0000000   0.0000000
 NMagM=    0.0000000   0.0000000   0.0000000   0.0000000   0.0000000   2.7928460   2.7928460   2.7928460   2.7928460   2.7928460
 AtZNuc=   6.0000000   6.0000000   6.0000000   6.0000000   6.0000000   1.0000000   1.0000000   1.0000000   1.0000000   1.0000000

  Atom        11          12          13          14          15          16          17          18          19          20
 IAtWgt=          56          12          12          12          12          12           1           1           1          12
 AtmWgt=  55.9349393  12.0000000  12.0000000  12.0000000  12.0000000  12.0000000   1.0078250   1.0078250   1.0078250  12.0000000
 NucSpn=           0           0           0           0           0           0           1           1           1           0
 AtZEff=  -0.0000000  -0.0000000  -0.0000000  -0.0000000  -0.0000000  -0.0000000  -0.0000000  -0.0000000  -0.0000000  -0.0000000
 NQMom=    0.0000000   0.0000000   0.0000000   0.0000000   0.0000000   0.0000000   0.0000000   0.0000000   0.0000000   0.0000000
 NMagM=    0.0000000   0.0000000   0.0000000   0.0000000   0.0000000   0.0000000   2.7928460   2.7928460   2.7928460   0.0000000
 AtZNuc=  26.0000000   6.0000000   6.0000000   6.0000000   6.0000000   6.0000000   1.0000000   1.0000000   1.0000000   6.0000000

  Atom        21          22          23          24          25          26          27          28          29          30
 IAtWgt=           1          31          12           1           1           1          31          12          12          12
 AtmWgt=   1.0078250  30.9737634  12.0000000   1.0078250   1.0078250   1.0078250  30.9737634  12.0000000  12.0000000  12.0000000
 NucSpn=           1           1           0           1           1           1           1           0           0           0
 AtZEff=  -0.0000000  -0.0000000  -0.0000000  -0.0000000  -0.0000000  -0.0000000  -0.0000000  -0.0000000  -0.0000000  -0.0000000
 NQMom=    0.0000000   0.0000000   0.0000000   0.0000000   0.0000000   0.0000000   0.0000000   0.0000000   0.0000000   0.0000000
 NMagM=    2.7928460   1.1316000   0.0000000   2.7928460   2.7928460   2.7928460   1.1316000   0.0000000   0.0000000   0.0000000
 AtZNuc=   1.0000000  15.0000000   6.0000000   1.0000000   1.0000000   1.0000000  15.0000000   6.0000000   6.0000000   6.0000000

  Atom        31          32          33          34          35          36          37          38          39          40
 IAtWgt=          12          12          12           1           1           1           1          12          12          12
 AtmWgt=  12.0000000  12.0000000  12.0000000   1.0078250   1.0078250   1.0078250   1.0078250  12.0000000  12.0000000  12.0000000
 NucSpn=           0           0           0           1           1           1           1           0           0           0
 AtZEff=  -0.0000000  -0.0000000  -0.0000000  -0.0000000  -0.0000000  -0.0000000  -0.0000000  -0.0000000  -0.0000000  -0.0000000
 NQMom=    0.0000000   0.0000000   0.0000000   0.0000000   0.0000000   0.0000000   0.0000000   0.0000000   0.0000000   0.0000000
 NMagM=    0.0000000   0.0000000   0.0000000   2.7928460   2.7928460   2.7928460   2.7928460   0.0000000   0.0000000   0.0000000
 AtZNuc=   6.0000000   6.0000000   6.0000000   1.0000000   1.0000000   1.0000000   1.0000000   6.0000000   6.0000000   6.0000000

  Atom        41          42          43          44          45          46          47          48          49          50
 IAtWgt=          12          12          12           1           1           1           1          12          12           1
 AtmWgt=  12.0000000  12.0000000  12.0000000   1.0078250   1.0078250   1.0078250   1.0078250  12.0000000  12.0000000   1.0078250
 NucSpn=           0           0           0           1           1           1           1           0           0           1
 AtZEff=  -0.0000000  -0.0000000  -0.0000000  -0.0000000  -0.0000000  -0.0000000  -0.0000000  -0.0000000  -0.0000000  -0.0000000
 NQMom=    0.0000000   0.0000000   0.0000000   0.0000000   0.0000000   0.0000000   0.0000000   0.0000000   0.0000000   0.0000000
 NMagM=    0.0000000   0.0000000   0.0000000   2.7928460   2.7928460   2.7928460   2.7928460   0.0000000   0.0000000   2.7928460
 AtZNuc=   6.0000000   6.0000000   6.0000000   1.0000000   1.0000000   1.0000000   1.0000000   6.0000000   6.0000000   1.0000000

  Atom        51          52          53          54          55          56          57          58          59          60
 IAtWgt=           1           1          12           1           1           1          12           1           1           1
 AtmWgt=   1.0078250   1.0078250  12.0000000   1.0078250   1.0078250   1.0078250  12.0000000   1.0078250   1.0078250   1.0078250
 NucSpn=           1           1           0           1           1           1           0           1           1           1
 AtZEff=  -0.0000000  -0.0000000  -0.0000000  -0.0000000  -0.0000000  -0.0000000  -0.0000000  -0.0000000  -0.0000000  -0.0000000
 NQMom=    0.0000000   0.0000000   0.0000000   0.0000000   0.0000000   0.0000000   0.0000000   0.0000000   0.0000000   0.0000000
 NMagM=    2.7928460   2.7928460   0.0000000   2.7928460   2.7928460   2.7928460   0.0000000   2.7928460   2.7928460   2.7928460
 AtZNuc=   1.0000000   1.0000000   6.0000000   1.0000000   1.0000000   1.0000000   6.0000000   1.0000000   1.0000000   1.0000000

  Atom        61          62          63          64          65          66          67          68          69          70
 IAtWgt=          12          12           1           1           1          12           1           1           1          12
 AtmWgt=  12.0000000  12.0000000   1.0078250   1.0078250   1.0078250  12.0000000   1.0078250   1.0078250   1.0078250  12.0000000
 NucSpn=           0           0           1           1           1           0           1           1           1           0
 AtZEff=  -0.0000000  -0.0000000  -0.0000000  -0.0000000  -0.0000000  -0.0000000  -0.0000000  -0.0000000  -0.0000000  -0.0000000
 NQMom=    0.0000000   0.0000000   0.0000000   0.0000000   0.0000000   0.0000000   0.0000000   0.0000000   0.0000000   0.0000000
 NMagM=    0.0000000   0.0000000   2.7928460   2.7928460   2.7928460   0.0000000   2.7928460   2.7928460   2.7928460   0.0000000
 AtZNuc=   6.0000000   6.0000000   1.0000000   1.0000000   1.0000000   6.0000000   1.0000000   1.0000000   1.0000000   6.0000000

  Atom        71          72          73          74          75          76          77          78          79          80
 IAtWgt=           1           1           1          12           1           1           1          12           1           1
 AtmWgt=   1.0078250   1.0078250   1.0078250  12.0000000   1.0078250   1.0078250   1.0078250  12.0000000   1.0078250   1.0078250
 NucSpn=           1           1           1           0           1           1           1           0           1           1
 AtZEff=  -0.0000000  -0.0000000  -0.0000000  -0.0000000  -0.0000000  -0.0000000  -0.0000000  -0.0000000  -0.0000000  -0.0000000
 NQMom=    0.0000000   0.0000000   0.0000000   0.0000000   0.0000000   0.0000000   0.0000000   0.0000000   0.0000000   0.0000000
 NMagM=    2.7928460   2.7928460   2.7928460   0.0000000   2.7928460   2.7928460   2.7928460   0.0000000   2.7928460   2.7928460
 AtZNuc=   1.0000000   1.0000000   1.0000000   6.0000000   1.0000000   1.0000000   1.0000000   6.0000000   1.0000000   1.0000000

  Atom        81
 IAtWgt=           1
 AtmWgt=   1.0078250
 NucSpn=           1
 AtZEff=  -0.0000000
 NQMom=    0.0000000
 NMagM=    2.7928460
 AtZNuc=   1.0000000
 Leave Link  101 at Fri Sep 29 19:31:42 2023, MaxMem=  4026531840 cpu:               0.1 elap:               0.1
 (Enter /sw/arch/RHEL8/EB_production/2022/software/Gaussian/g16.c02/l202.exe)
 Symmetry turned off by external request.
 Stoichiometry    C34H44FeP2
 Framework group  C1[X(C34H44FeP2)]
 Deg. of freedom   237
 Full point group                 C1      NOp   1
                          Input orientation:                          
 ---------------------------------------------------------------------
 Center     Atomic      Atomic             Coordinates (Angstroms)
 Number     Number       Type             X           Y           Z
 ---------------------------------------------------------------------
      1          6           0       -5.041000    0.065760   -0.801510
      2          6           0       -5.147550    1.469150   -0.582340
      3          6           0       -4.236700    2.124100   -1.460140
      4          6           0       -3.560950    1.126290   -2.218790
      5          6           0       -4.069010   -0.142160   -1.817030
      6          1           0       -5.599260   -0.710910   -0.278470
      7          1           0       -5.794600    1.957180    0.146820
      8          1           0       -4.074870    3.200650   -1.519340
      9          1           0       -2.800650    1.299390   -2.981630
     10          1           0       -3.773380   -1.106790   -2.224510
     11         26           0       -3.237530    0.862690   -0.201110
     12          6           0       -2.315950    2.178350    1.046840
     13          6           0       -1.346170    1.443460    0.302570
     14          6           0       -1.498170    0.043750    0.628960
     15          6           0       -2.626030   -0.044600    1.519600
     16          6           0       -3.101470    1.261760    1.794520
     17          1           0       -2.480640    3.253560    1.004460
     18          1           0       -3.045300   -0.956880    1.936600
     19          1           0       -3.953410    1.513300    2.425970
     20          6           0       -0.362520    2.014730   -0.670910
     21          1           0       -0.353310    1.340340   -1.541020
     22         15           0       -0.216420   -1.248430    0.394470
     23          6           0       -0.730010    3.406040   -1.184340
     24          1           0        0.098300    3.873800   -1.736520
     25          1           0       -1.595060    3.321970   -1.862330
     26          1           0       -1.017970    4.103510   -0.384880
     27         15           0        1.387420    1.750170   -0.036110
     28          6           0        1.440230    2.438920    1.667310
     29          6           0        1.380800    3.632690    4.213630
     30          6           0        2.209520    2.547730    3.956170
     31          6           0        2.267720    1.936770    2.695260
     32          6           0        0.623590    3.549280    1.936700
     33          6           0        0.584800    4.144040    3.191160
     34          1           0        1.361480    4.082440    5.210400
     35          1           0        2.842500    2.152190    4.756490
     36          1           0        0.011600    3.972560    1.143040
     37          1           0       -0.064950    5.005650    3.366790
     38          6           0        2.411600    2.924070   -1.005690
     39          6           0        4.076160    4.704190   -2.394130
     40          6           0        4.092120    4.685740   -1.002820
     41          6           0        3.261770    3.801840   -0.318450
     42          6           0        2.401950    2.926190   -2.422610
     43          6           0        3.240520    3.830150   -3.085300
     44          1           0        4.718400    5.395750   -2.946660
     45          1           0        4.746070    5.361100   -0.444430
     46          1           0        3.268820    3.802070    0.774480
     47          1           0        3.238550    3.841670   -4.179900
     48          6           0       -1.033730   -2.527000   -0.736420
     49          6           0       -2.478960   -2.844520   -0.346560
     50          1           0       -2.544020   -3.440180    0.574660
     51          1           0       -3.077080   -1.930810   -0.223360
     52          1           0       -2.938750   -3.444350   -1.153840
     53          6           0       -1.027110   -1.847220   -2.111870
     54          1           0       -1.570650   -0.889640   -2.071940
     55          1           0       -0.006690   -1.632230   -2.465530
     56          1           0       -1.525270   -2.496230   -2.855400
     57          6           0       -0.242960   -3.835480   -0.773890
     58          1           0        0.821050   -3.697040   -1.006590
     59          1           0       -0.314750   -4.385590    0.178050
     60          1           0       -0.670290   -4.488140   -1.556780
     61          6           0        0.011740   -1.930710    2.171520
     62          6           0       -1.069590   -2.899710    2.653730
     63          1           0       -2.083390   -2.477650    2.623410
     64          1           0       -1.067840   -3.847330    2.093430
     65          1           0       -0.857190   -3.148200    3.709710
     66          6           0        1.352870   -2.664610    2.249960
     67          1           0        1.374810   -3.559980    1.607910
     68          1           0        2.195240   -2.009690    1.975080
     69          1           0        1.510490   -3.005910    3.289010
     70          6           0        0.063520   -0.726570    3.117330
     71          1           0        0.733150    0.064490    2.750930
     72          1           0       -0.925830   -0.271670    3.272390
     73          1           0        0.440870   -1.060760    4.100710
     74          6           0        3.236700    0.808230    2.515610
     75          1           0        2.900950    0.094750    1.740940
     76          1           0        4.226860    1.192370    2.208350
     77          1           0        3.379350    0.257270    3.459180
     78          6           0        1.544400    2.009040   -3.254540
     79          1           0        1.399140    1.022660   -2.776900
     80          1           0        0.545620    2.442820   -3.439660
     81          1           0        2.006700    1.841070   -4.240910
 ---------------------------------------------------------------------
 Rotational constants (GHZ):           0.1252136           0.0816938           0.0724688
 Leave Link  202 at Fri Sep 29 19:31:42 2023, MaxMem=  4026531840 cpu:               0.1 elap:               0.0
 (Enter /sw/arch/RHEL8/EB_production/2022/software/Gaussian/g16.c02/l301.exe)
 Standard basis: def2SVPP (5D, 7F)
 Ernie: Thresh=  0.10000D-02 Tol=  0.10000D-05 Strict=F.
   624 basis functions,  1171 primitive gaussians,   662 cartesian basis functions
   152 alpha electrons      152 beta electrons
       nuclear repulsion energy      5619.7351701737 Hartrees.
 IExCor= 1009 DFT=T Ex+Corr=PBE1PBE ExCW=0 ScaHFX=  0.250000
 ScaDFX=  0.750000  0.750000  1.000000  1.000000 ScalE2=  1.000000  1.000000
 IRadAn=      5 IRanWt=     -1 IRanGd=            0 ICorTp=0 IEmpDi=141
 NAtoms=   81 NActive=   81 NUniq=   81 SFac= 1.00D+00 NAtFMM=   60 NAOKFM=T Big=T
 Integral buffers will be    131072 words long.
 Raffenetti 2 integral format.
 Two-electron integral symmetry is turned off.
 R6Disp:  Grimme-D3(BJ) Dispersion energy=       -0.1278973752 Hartrees.
 Nuclear repulsion after empirical dispersion term =     5619.6072727985 Hartrees.
 Leave Link  301 at Fri Sep 29 19:31:42 2023, MaxMem=  4026531840 cpu:               0.1 elap:               0.0
 (Enter /sw/arch/RHEL8/EB_production/2022/software/Gaussian/g16.c02/l302.exe)
 NPDir=0 NMtPBC=     1 NCelOv=     1 NCel=       1 NClECP=     1 NCelD=      1
         NCelK=      1 NCelE2=     1 NClLst=     1 CellRange=     0.0.
 One-electron integrals computed using PRISM.
   1 Symmetry operations used in ECPInt.
 ECPInt:  NShTT=   50721 NPrTT=  210936 LenC2=   45757 LenP2D=  121430.
 LDataN:  DoStor=T MaxTD1= 4 Len=   56
 NBasis=   624 RedAO= T EigKep=  2.38D-04  NBF=   624
 NBsUse=   624 1.00D-06 EigRej= -1.00D+00 NBFU=   624
 Precomputing XC quadrature grid using
 IXCGrd= 4 IRadAn=           5 IRanWt=          -1 IRanGd=           0 AccXCQ= 0.00D+00.
 Generated NRdTot=       0 NPtTot=           0 NUsed=           0 NTot=          32
 NSgBfM=   650   648   649   650   650 MxSgAt=    81 MxSgA2=    81.
 Leave Link  302 at Fri Sep 29 19:31:43 2023, MaxMem=  4026531840 cpu:              14.9 elap:               0.8
 (Enter /sw/arch/RHEL8/EB_production/2022/software/Gaussian/g16.c02/l303.exe)
 DipDrv:  MaxL=1.
 Leave Link  303 at Fri Sep 29 19:31:43 2023, MaxMem=  4026531840 cpu:               0.4 elap:               0.1
 (Enter /sw/arch/RHEL8/EB_production/2022/software/Gaussian/g16.c02/l401.exe)
 ExpMin= 3.37D-02 ExpMax= 6.09D+04 ExpMxC= 9.15D+03 IAcc=3 IRadAn=         5 AccDes= 0.00D+00
 Harris functional with IExCor= 1009 and IRadAn=       5 diagonalized for initial guess.
 HarFok:  IExCor= 1009 AccDes= 0.00D+00 IRadAn=         5 IDoV= 1 UseB2=F ITyADJ=14
 ICtDFT=  3500011 ScaDFX=  1.000000  1.000000  1.000000  1.000000
 FoFCou: FMM=F IPFlag=           0 FMFlag=      100000 FMFlg1=        2001
         NFxFlg=           0 DoJE=T BraDBF=F KetDBF=T FulRan=T
         wScrn=  0.000000 ICntrl=       500 IOpCl=  0 I1Cent=   200000004 NGrid=           0
         NMat0=    1 NMatS0=      1 NMatT0=    0 NMatD0=    1 NMtDS0=    0 NMtDT0=    0
 Symmetry not used in FoFCou.
 Harris En= -3265.56720783966    
 JPrj=0 DoOrth=F DoCkMO=F.
 Leave Link  401 at Fri Sep 29 19:31:45 2023, MaxMem=  4026531840 cpu:              65.0 elap:               2.3
 (Enter /sw/arch/RHEL8/EB_production/2022/software/Gaussian/g16.c02/l502.exe)
 Two-electron integral symmetry not used.
 Closed shell SCF:
 Using DIIS extrapolation, IDIIS=  1040.
 NGot=  4026531840 LenX=  4025625346 LenY=  4025186440
 Requested convergence on RMS density matrix=1.00D-08 within  90 cycles.
 Requested convergence on MAX density matrix=1.00D-06.
 Requested convergence on             energy=1.00D-06.
 No special actions if energy rises.
 Fock matrices will be formed incrementally for  20 cycles.

 Cycle   1  Pass 1  IDiag  1:
 FoFJK:  IHMeth= 1 ICntrl=       0 DoSepK=F KAlg= 0 I1Cent=           0 FoldK=F
 IRaf= 990000000 NMat=       1 IRICut=       1 DoRegI=T DoRafI=F ISym2E= 0 IDoP0=0 IntGTp=1.
 FoFCou: FMM=T IPFlag=           0 FMFlag=      100000 FMFlg1=        2001
         NFxFlg=           0 DoJE=F BraDBF=F KetDBF=F FulRan=T
         wScrn=  0.000000 ICntrl=         0 IOpCl=  0 I1Cent=           0 NGrid=           0
         NMat0=    1 NMatS0=      1 NMatT0=    0 NMatD0=    1 NMtDS0=    0 NMtDT0=    0
 Symmetry not used in FoFCou.
 FMM levels:  10  Number of levels for PrismC:   9
 E= -3264.20453956025    
 DIIS: error= 2.11D-02 at cycle   1 NSaved=   1.
 NSaved= 1 IEnMin= 1 EnMin= -3264.20453956025     IErMin= 1 ErrMin= 2.11D-02
 ErrMax= 2.11D-02  0.00D+00 EMaxC= 1.00D-01 BMatC= 9.23D-01 BMatP= 9.23D-01
 IDIUse=3 WtCom= 7.89D-01 WtEn= 2.11D-01
 Coeff-Com:  0.100D+01
 Coeff-En:   0.100D+01
 Coeff:      0.100D+01
 Gap=     0.199 Goal=   None    Shift=    0.000
 GapD=    0.199 DampG=1.000 DampE=0.250 DampFc=0.2500 IDamp=-1.
 Damping current iteration by 2.50D-01
 RMSDP=4.58D-03 MaxDP=1.80D-01              OVMax= 1.80D-01

 Cycle   2  Pass 1  IDiag  1:
 RMSU=  1.08D-03    CP:  9.78D-01
 E= -3264.54196579989     Delta-E=       -0.337426239636 Rises=F Damp=T
 DIIS: error= 1.09D-02 at cycle   2 NSaved=   2.
 NSaved= 2 IEnMin= 2 EnMin= -3264.54196579989     IErMin= 2 ErrMin= 1.09D-02
 ErrMax= 1.09D-02  0.00D+00 EMaxC= 1.00D-01 BMatC= 2.35D-01 BMatP= 9.23D-01
 IDIUse=3 WtCom= 8.91D-01 WtEn= 1.09D-01
 Coeff-Com: -0.491D+00 0.149D+01
 Coeff-En:   0.000D+00 0.100D+01
 Coeff:     -0.437D+00 0.144D+01
 Gap=     0.287 Goal=   None    Shift=    0.000
 RMSDP=4.76D-03 MaxDP=3.47D-01 DE=-3.37D-01 OVMax= 5.18D-01

 Cycle   3  Pass 1  IDiag  1:
 RMSU=  4.73D-03    CP:  9.70D-01  1.45D+00
 E= -3262.85699165296     Delta-E=        1.684974146934 Rises=F Damp=F
 DIIS: error= 1.13D-01 at cycle   3 NSaved=   3.
 NSaved= 3 IEnMin= 2 EnMin= -3264.54196579989     IErMin= 2 ErrMin= 1.09D-02
 ErrMax= 1.13D-01  0.00D+00 EMaxC= 1.00D-01 BMatC= 3.57D+00 BMatP= 2.35D-01
 IDIUse=2 WtCom= 0.00D+00 WtEn= 1.00D+00
 Coeff-En:   0.000D+00 0.834D+00 0.166D+00
 Coeff:      0.000D+00 0.834D+00 0.166D+00
 Gap=     0.315 Goal=   None    Shift=    0.000
 RMSDP=5.74D-03 MaxDP=3.81D-01 DE= 1.68D+00 OVMax= 4.18D-01

 Cycle   4  Pass 1  IDiag  1:
 RMSU=  1.25D-03    CP:  9.22D-01  2.81D+00 -1.29D-01
 E= -3264.02798716510     Delta-E=       -1.170995512142 Rises=F Damp=F
 DIIS: error= 5.79D-02 at cycle   4 NSaved=   4.
 NSaved= 4 IEnMin= 2 EnMin= -3264.54196579989     IErMin= 2 ErrMin= 1.09D-02
 ErrMax= 5.79D-02  0.00D+00 EMaxC= 1.00D-01 BMatC= 1.93D+00 BMatP= 2.35D-01
 IDIUse=2 WtCom= 0.00D+00 WtEn= 1.00D+00
 EnCoef did     2 forward-backward iterations
 Coeff-En:   0.976D-01 0.000D+00 0.349D+00 0.553D+00
 Coeff:      0.976D-01 0.000D+00 0.349D+00 0.553D+00
 Gap=     0.141 Goal=   None    Shift=    0.000
 RMSDP=2.56D-03 MaxDP=1.99D-01 DE=-1.17D+00 OVMax= 2.45D-01

 Cycle   5  Pass 1  IDiag  1:
 RMSU=  1.04D-03    CP:  9.62D-01  1.43D+00  2.00D-01  5.20D-01
 E= -3265.12039006530     Delta-E=       -1.092402900204 Rises=F Damp=F
 DIIS: error= 1.21D-02 at cycle   5 NSaved=   5.
 NSaved= 5 IEnMin= 5 EnMin= -3265.12039006530     IErMin= 2 ErrMin= 1.09D-02
 ErrMax= 1.21D-02  0.00D+00 EMaxC= 1.00D-01 BMatC= 9.07D-02 BMatP= 2.35D-01
 IDIUse=3 WtCom= 8.79D-01 WtEn= 1.21D-01
 Coeff-Com: -0.579D+00 0.793D+00-0.827D-03-0.378D-01 0.825D+00
 Coeff-En:   0.000D+00 0.000D+00 0.000D+00 0.952D-01 0.905D+00
 Coeff:     -0.509D+00 0.697D+00-0.727D-03-0.216D-01 0.835D+00
 Gap=     0.163 Goal=   None    Shift=    0.000
 RMSDP=6.71D-04 MaxDP=3.57D-02 DE=-1.09D+00 OVMax= 4.65D-02

 Cycle   6  Pass 1  IDiag  1:
 RMSU=  2.41D-04    CP:  9.51D-01  1.93D+00  1.56D-01  4.30D-01  9.06D-01
 E= -3265.19174769190     Delta-E=       -0.071357626595 Rises=F Damp=F
 DIIS: error= 1.59D-03 at cycle   6 NSaved=   6.
 NSaved= 6 IEnMin= 6 EnMin= -3265.19174769190     IErMin= 6 ErrMin= 1.59D-03
 ErrMax= 1.59D-03  0.00D+00 EMaxC= 1.00D-01 BMatC= 1.60D-03 BMatP= 9.07D-02
 IDIUse=3 WtCom= 9.84D-01 WtEn= 1.59D-02
 Coeff-Com: -0.258D+00 0.348D+00-0.451D-02-0.236D-01 0.408D+00 0.530D+00
 Coeff-En:   0.000D+00 0.000D+00 0.000D+00 0.000D+00 0.000D+00 0.100D+01
 Coeff:     -0.254D+00 0.342D+00-0.444D-02-0.233D-01 0.402D+00 0.537D+00
 Gap=     0.161 Goal=   None    Shift=    0.000
 RMSDP=1.22D-04 MaxDP=9.28D-03 DE=-7.14D-02 OVMax= 8.53D-03

 Cycle   7  Pass 1  IDiag  1:
 RMSU=  7.89D-05    CP:  9.52D-01  1.89D+00  1.55D-01  4.33D-01  9.40D-01
                    CP:  7.06D-01
 E= -3265.19304071887     Delta-E=       -0.001293026975 Rises=F Damp=F
 DIIS: error= 6.75D-04 at cycle   7 NSaved=   7.
 NSaved= 7 IEnMin= 7 EnMin= -3265.19304071887     IErMin= 7 ErrMin= 6.75D-04
 ErrMax= 6.75D-04  0.00D+00 EMaxC= 1.00D-01 BMatC= 1.86D-04 BMatP= 1.60D-03
 IDIUse=3 WtCom= 9.93D-01 WtEn= 6.75D-03
 Coeff-Com: -0.316D-01 0.398D-01-0.412D-02-0.314D-02 0.615D-01 0.245D+00
 Coeff-Com:  0.692D+00
 Coeff-En:   0.000D+00 0.000D+00 0.000D+00 0.000D+00 0.000D+00 0.238D-01
 Coeff-En:   0.976D+00
 Coeff:     -0.313D-01 0.395D-01-0.409D-02-0.312D-02 0.611D-01 0.244D+00
 Coeff:      0.694D+00
 Gap=     0.162 Goal=   None    Shift=    0.000
 RMSDP=5.30D-05 MaxDP=3.16D-03 DE=-1.29D-03 OVMax= 3.77D-03

 Cycle   8  Pass 1  IDiag  1:
 RMSU=  3.12D-05    CP:  9.52D-01  1.90D+00  1.49D-01  4.45D-01  9.34D-01
                    CP:  7.77D-01  8.27D-01
 E= -3265.19319681998     Delta-E=       -0.000156101110 Rises=F Damp=F
 DIIS: error= 2.07D-04 at cycle   8 NSaved=   8.
 NSaved= 8 IEnMin= 8 EnMin= -3265.19319681998     IErMin= 8 ErrMin= 2.07D-04
 ErrMax= 2.07D-04  0.00D+00 EMaxC= 1.00D-01 BMatC= 2.71D-05 BMatP= 1.86D-04
 IDIUse=3 WtCom= 9.98D-01 WtEn= 2.07D-03
 Coeff-Com:  0.132D-01-0.192D-01-0.227D-02 0.141D-02-0.163D-01 0.690D-01
 Coeff-Com:  0.379D+00 0.575D+00
 Coeff-En:   0.000D+00 0.000D+00 0.000D+00 0.000D+00 0.000D+00 0.000D+00
 Coeff-En:   0.000D+00 0.100D+01
 Coeff:      0.132D-01-0.192D-01-0.227D-02 0.141D-02-0.163D-01 0.688D-01
 Coeff:      0.378D+00 0.576D+00
 Gap=     0.162 Goal=   None    Shift=    0.000
 RMSDP=2.18D-05 MaxDP=1.70D-03 DE=-1.56D-04 OVMax= 1.32D-03

 Cycle   9  Pass 1  IDiag  1:
 RMSU=  1.45D-05    CP:  9.51D-01  1.90D+00  1.47D-01  4.49D-01  9.33D-01
                    CP:  7.84D-01  9.61D-01  8.48D-01
 E= -3265.19322088168     Delta-E=       -0.000024061701 Rises=F Damp=F
 DIIS: error= 1.25D-04 at cycle   9 NSaved=   9.
 NSaved= 9 IEnMin= 9 EnMin= -3265.19322088168     IErMin= 9 ErrMin= 1.25D-04
 ErrMax= 1.25D-04  0.00D+00 EMaxC= 1.00D-01 BMatC= 7.45D-06 BMatP= 2.71D-05
 IDIUse=3 WtCom= 9.99D-01 WtEn= 1.25D-03
 Coeff-Com:  0.111D-01-0.147D-01-0.687D-03 0.154D-02-0.188D-01-0.163D-01
 Coeff-Com:  0.283D-01 0.307D+00 0.703D+00
 Coeff-En:   0.000D+00 0.000D+00 0.000D+00 0.000D+00 0.000D+00 0.000D+00
 Coeff-En:   0.000D+00 0.000D+00 0.100D+01
 Coeff:      0.110D-01-0.147D-01-0.686D-03 0.153D-02-0.188D-01-0.162D-01
 Coeff:      0.283D-01 0.306D+00 0.703D+00
 Gap=     0.162 Goal=   None    Shift=    0.000
 RMSDP=1.10D-05 MaxDP=6.58D-04 DE=-2.41D-05 OVMax= 7.54D-04

 Cycle  10  Pass 1  IDiag  1:
 RMSU=  5.31D-06    CP:  9.51D-01  1.90D+00  1.46D-01  4.51D-01  9.30D-01
                    CP:  7.87D-01  9.64D-01  1.00D+00  9.37D-01
 E= -3265.19322653473     Delta-E=       -0.000005653044 Rises=F Damp=F
 DIIS: error= 5.50D-05 at cycle  10 NSaved=  10.
 NSaved=10 IEnMin=10 EnMin= -3265.19322653473     IErMin=10 ErrMin= 5.50D-05
 ErrMax= 5.50D-05  0.00D+00 EMaxC= 1.00D-01 BMatC= 1.62D-06 BMatP= 7.45D-06
 IDIUse=1 WtCom= 1.00D+00 WtEn= 0.00D+00
 Coeff-Com:  0.425D-02-0.528D-02-0.260D-03 0.845D-03-0.824D-02-0.163D-01
 Coeff-Com: -0.321D-01 0.102D+00 0.394D+00 0.562D+00
 Coeff:      0.425D-02-0.528D-02-0.260D-03 0.845D-03-0.824D-02-0.163D-01
 Coeff:     -0.321D-01 0.102D+00 0.394D+00 0.562D+00
 Gap=     0.162 Goal=   None    Shift=    0.000
 RMSDP=3.05D-06 MaxDP=2.24D-04 DE=-5.65D-06 OVMax= 2.53D-04

 Cycle  11  Pass 1  IDiag  1:
 RMSU=  1.59D-06    CP:  9.51D-01  1.90D+00  1.45D-01  4.51D-01  9.30D-01
                    CP:  7.90D-01  9.71D-01  1.02D+00  9.89D-01  7.33D-01
 E= -3265.19322763458     Delta-E=       -0.000001099848 Rises=F Damp=F
 DIIS: error= 2.34D-05 at cycle  11 NSaved=  11.
 NSaved=11 IEnMin=11 EnMin= -3265.19322763458     IErMin=11 ErrMin= 2.34D-05
 ErrMax= 2.34D-05  0.00D+00 EMaxC= 1.00D-01 BMatC= 2.74D-07 BMatP= 1.62D-06
 IDIUse=1 WtCom= 1.00D+00 WtEn= 0.00D+00
 Coeff-Com:  0.727D-03-0.724D-03-0.115D-03 0.366D-03-0.174D-02-0.615D-02
 Coeff-Com: -0.223D-01 0.153D-01 0.126D+00 0.297D+00 0.591D+00
 Coeff:      0.727D-03-0.724D-03-0.115D-03 0.366D-03-0.174D-02-0.615D-02
 Coeff:     -0.223D-01 0.153D-01 0.126D+00 0.297D+00 0.591D+00
 Gap=     0.162 Goal=   None    Shift=    0.000
 RMSDP=1.19D-06 MaxDP=8.37D-05 DE=-1.10D-06 OVMax= 1.12D-04

 Cycle  12  Pass 1  IDiag  1:
 RMSU=  8.36D-07    CP:  9.51D-01  1.90D+00  1.45D-01  4.52D-01  9.30D-01
                    CP:  7.90D-01  9.71D-01  1.02D+00  1.00D+00  7.88D-01
                    CP:  8.95D-01
 E= -3265.19322781481     Delta-E=       -0.000000180231 Rises=F Damp=F
 DIIS: error= 8.93D-06 at cycle  12 NSaved=  12.
 NSaved=12 IEnMin=12 EnMin= -3265.19322781481     IErMin=12 ErrMin= 8.93D-06
 ErrMax= 8.93D-06  0.00D+00 EMaxC= 1.00D-01 BMatC= 4.41D-08 BMatP= 2.74D-07
 IDIUse=1 WtCom= 1.00D+00 WtEn= 0.00D+00
 Coeff-Com: -0.395D-03 0.561D-03-0.385D-04 0.101D-03 0.789D-03 0.486D-03
 Coeff-Com: -0.498D-02-0.127D-01-0.151D-01 0.427D-01 0.334D+00 0.655D+00
 Coeff:     -0.395D-03 0.561D-03-0.385D-04 0.101D-03 0.789D-03 0.486D-03
 Coeff:     -0.498D-02-0.127D-01-0.151D-01 0.427D-01 0.334D+00 0.655D+00
 Gap=     0.162 Goal=   None    Shift=    0.000
 RMSDP=7.06D-07 MaxDP=5.77D-05 DE=-1.80D-07 OVMax= 9.08D-05

 Cycle  13  Pass 1  IDiag  1:
 RMSU=  4.21D-07    CP:  9.51D-01  1.90D+00  1.45D-01  4.52D-01  9.30D-01
                    CP:  7.90D-01  9.72D-01  1.03D+00  1.01D+00  8.13D-01
                    CP:  1.10D+00  9.85D-01
 E= -3265.19322785771     Delta-E=       -0.000000042901 Rises=F Damp=F
 DIIS: error= 3.04D-06 at cycle  13 NSaved=  13.
 NSaved=13 IEnMin=13 EnMin= -3265.19322785771     IErMin=13 ErrMin= 3.04D-06
 ErrMax= 3.04D-06  0.00D+00 EMaxC= 1.00D-01 BMatC= 4.48D-09 BMatP= 4.41D-08
 IDIUse=1 WtCom= 1.00D+00 WtEn= 0.00D+00
 Coeff-Com: -0.333D-03 0.414D-03-0.135D-05-0.851D-05 0.753D-03 0.168D-02
 Coeff-Com:  0.259D-02-0.941D-02-0.351D-01-0.428D-01 0.421D-01 0.353D+00
 Coeff-Com:  0.687D+00
 Coeff:     -0.333D-03 0.414D-03-0.135D-05-0.851D-05 0.753D-03 0.168D-02
 Coeff:      0.259D-02-0.941D-02-0.351D-01-0.428D-01 0.421D-01 0.353D+00
 Coeff:      0.687D+00
 Gap=     0.162 Goal=   None    Shift=    0.000
 RMSDP=3.81D-07 MaxDP=3.84D-05 DE=-4.29D-08 OVMax= 6.47D-05

 Cycle  14  Pass 1  IDiag  1:
 RMSU=  1.84D-07    CP:  9.51D-01  1.90D+00  1.45D-01  4.52D-01  9.30D-01
                    CP:  7.90D-01  9.71D-01  1.03D+00  1.01D+00  8.33D-01
                    CP:  1.20D+00  1.24D+00  1.15D+00
 E= -3265.19322786818     Delta-E=       -0.000000010470 Rises=F Damp=F
 DIIS: error= 1.67D-06 at cycle  14 NSaved=  14.
 NSaved=14 IEnMin=14 EnMin= -3265.19322786818     IErMin=14 ErrMin= 1.67D-06
 ErrMax= 1.67D-06  0.00D+00 EMaxC= 1.00D-01 BMatC= 7.45D-10 BMatP= 4.48D-09
 IDIUse=1 WtCom= 1.00D+00 WtEn= 0.00D+00
 Coeff-Com: -0.506D-04 0.458D-04 0.959D-05-0.285D-04 0.143D-03 0.692D-03
 Coeff-Com:  0.251D-02-0.155D-02-0.137D-01-0.319D-01-0.582D-01 0.250D-01
 Coeff-Com:  0.346D+00 0.731D+00
 Coeff:     -0.506D-04 0.458D-04 0.959D-05-0.285D-04 0.143D-03 0.692D-03
 Coeff:      0.251D-02-0.155D-02-0.137D-01-0.319D-01-0.582D-01 0.250D-01
 Coeff:      0.346D+00 0.731D+00
 Gap=     0.162 Goal=   None    Shift=    0.000
 RMSDP=2.42D-07 MaxDP=2.44D-05 DE=-1.05D-08 OVMax= 4.80D-05

 Cycle  15  Pass 1  IDiag  1:
 RMSU=  1.07D-07    CP:  9.51D-01  1.90D+00  1.45D-01  4.52D-01  9.30D-01
                    CP:  7.90D-01  9.71D-01  1.03D+00  1.01D+00  8.38D-01
                    CP:  1.27D+00  1.39D+00  1.44D+00  1.11D+00
 E= -3265.19322787188     Delta-E=       -0.000000003700 Rises=F Damp=F
 DIIS: error= 9.38D-07 at cycle  15 NSaved=  15.
 NSaved=15 IEnMin=15 EnMin= -3265.19322787188     IErMin=15 ErrMin= 9.38D-07
 ErrMax= 9.38D-07  0.00D+00 EMaxC= 1.00D-01 BMatC= 4.71D-10 BMatP= 7.45D-10
 IDIUse=1 WtCom= 1.00D+00 WtEn= 0.00D+00
 Coeff-Com:  0.637D-04-0.875D-04 0.881D-05-0.220D-04-0.151D-03-0.180D-03
 Coeff-Com:  0.514D-03 0.218D-02 0.426D-02-0.344D-02-0.479D-01-0.112D+00
 Coeff-Com: -0.566D-01 0.413D+00 0.801D+00
 Coeff:      0.637D-04-0.875D-04 0.881D-05-0.220D-04-0.151D-03-0.180D-03
 Coeff:      0.514D-03 0.218D-02 0.426D-02-0.344D-02-0.479D-01-0.112D+00
 Coeff:     -0.566D-01 0.413D+00 0.801D+00
 Gap=     0.162 Goal=   None    Shift=    0.000
 RMSDP=1.94D-07 MaxDP=1.93D-05 DE=-3.70D-09 OVMax= 3.83D-05

 Cycle  16  Pass 1  IDiag  1:
 RMSU=  5.27D-08    CP:  9.51D-01  1.90D+00  1.45D-01  4.52D-01  9.30D-01
                    CP:  7.90D-01  9.71D-01  1.03D+00  1.02D+00  8.43D-01
                    CP:  1.33D+00  1.52D+00  1.68D+00  1.49D+00  1.01D+00
 E= -3265.19322787354     Delta-E=       -0.000000001659 Rises=F Damp=F
 DIIS: error= 5.20D-07 at cycle  16 NSaved=  16.
 NSaved=16 IEnMin=16 EnMin= -3265.19322787354     IErMin=16 ErrMin= 5.20D-07
 ErrMax= 5.20D-07  0.00D+00 EMaxC= 1.00D-01 BMatC= 1.74D-10 BMatP= 4.71D-10
 IDIUse=1 WtCom= 1.00D+00 WtEn= 0.00D+00
 Coeff-Com:  0.378D-04-0.474D-04 0.304D-05-0.657D-05-0.102D-03-0.307D-03
 Coeff-Com: -0.546D-03 0.139D-02 0.625D-02 0.854D-02-0.387D-02-0.647D-01
 Coeff-Com: -0.148D+00-0.662D-01 0.417D+00 0.851D+00
 Coeff:      0.378D-04-0.474D-04 0.304D-05-0.657D-05-0.102D-03-0.307D-03
 Coeff:     -0.546D-03 0.139D-02 0.625D-02 0.854D-02-0.387D-02-0.647D-01
 Coeff:     -0.148D+00-0.662D-01 0.417D+00 0.851D+00
 Gap=     0.162 Goal=   None    Shift=    0.000
 RMSDP=1.20D-07 MaxDP=1.28D-05 DE=-1.66D-09 OVMax= 2.46D-05

 Cycle  17  Pass 1  IDiag  1:
 RMSU=  2.28D-08    CP:  9.51D-01  1.90D+00  1.45D-01  4.52D-01  9.30D-01
                    CP:  7.90D-01  9.71D-01  1.03D+00  1.02D+00  8.47D-01
                    CP:  1.36D+00  1.59D+00  1.83D+00  1.69D+00  1.28D+00
                    CP:  9.50D-01
 E= -3265.19322787418     Delta-E=       -0.000000000648 Rises=F Damp=F
 DIIS: error= 1.05D-07 at cycle  17 NSaved=  17.
 NSaved=17 IEnMin=17 EnMin= -3265.19322787418     IErMin=17 ErrMin= 1.05D-07
 ErrMax= 1.05D-07  0.00D+00 EMaxC= 1.00D-01 BMatC= 1.55D-11 BMatP= 1.74D-10
 IDIUse=1 WtCom= 1.00D+00 WtEn= 0.00D+00
 Coeff-Com:  0.975D-05-0.116D-04 0.558D-06-0.738D-06-0.276D-04-0.128D-03
 Coeff-Com: -0.327D-03 0.279D-03 0.217D-02 0.436D-02 0.470D-02-0.149D-01
 Coeff-Com: -0.602D-01-0.988D-01 0.729D-01 0.418D+00 0.671D+00
 Coeff:      0.975D-05-0.116D-04 0.558D-06-0.738D-06-0.276D-04-0.128D-03
 Coeff:     -0.327D-03 0.279D-03 0.217D-02 0.436D-02 0.470D-02-0.149D-01
 Coeff:     -0.602D-01-0.988D-01 0.729D-01 0.418D+00 0.671D+00
 Gap=     0.162 Goal=   None    Shift=    0.000
 RMSDP=3.14D-08 MaxDP=3.43D-06 DE=-6.48D-10 OVMax= 6.22D-06

 Cycle  18  Pass 1  IDiag  1:
 RMSU=  9.05D-09    CP:  9.51D-01  1.90D+00  1.45D-01  4.52D-01  9.30D-01
                    CP:  7.90D-01  9.72D-01  1.03D+00  1.02D+00  8.48D-01
                    CP:  1.37D+00  1.61D+00  1.86D+00  1.74D+00  1.36D+00
                    CP:  1.06D+00  8.42D-01
 E= -3265.19322787416     Delta-E=        0.000000000020 Rises=F Damp=F
 DIIS: error= 4.48D-08 at cycle  18 NSaved=  18.
 NSaved=18 IEnMin=17 EnMin= -3265.19322787418     IErMin=18 ErrMin= 4.48D-08
 ErrMax= 4.48D-08  0.00D+00 EMaxC= 1.00D-01 BMatC= 1.78D-12 BMatP= 1.55D-11
 IDIUse=1 WtCom= 1.00D+00 WtEn= 0.00D+00
 Coeff-Com:  0.305D-06 0.137D-06 0.702D-07-0.890D-07-0.308D-05-0.373D-04
 Coeff-Com: -0.112D-03-0.120D-04 0.445D-03 0.131D-02 0.236D-02-0.197D-02
 Coeff-Com: -0.158D-01-0.428D-01-0.239D-02 0.132D+00 0.353D+00 0.574D+00
 Coeff:      0.305D-06 0.137D-06 0.702D-07-0.890D-07-0.308D-05-0.373D-04
 Coeff:     -0.112D-03-0.120D-04 0.445D-03 0.131D-02 0.236D-02-0.197D-02
 Coeff:     -0.158D-01-0.428D-01-0.239D-02 0.132D+00 0.353D+00 0.574D+00
 Gap=     0.162 Goal=   None    Shift=    0.000
 RMSDP=6.30D-09 MaxDP=4.68D-07 DE= 2.00D-11 OVMax= 9.58D-07

 SCF Done:  E(RPBE1PBE) =  -3265.19322787     A.U. after   18 cycles
            NFock= 18  Conv=0.63D-08     -V/T= 2.0055
 KE= 3.247209661133D+03 PE=-1.892150711666D+04 EE= 6.789496954856D+03
 Leave Link  502 at Fri Sep 29 19:33:48 2023, MaxMem=  4026531840 cpu:            3617.9 elap:             122.1
 (Enter /sw/arch/RHEL8/EB_production/2022/software/Gaussian/g16.c02/l508.exe)
 QCSCF skips out because SCF is already converged.
 Leave Link  508 at Fri Sep 29 19:33:48 2023, MaxMem=  4026531840 cpu:               0.0 elap:               0.0
 (Enter /sw/arch/RHEL8/EB_production/2022/software/Gaussian/g16.c02/l601.exe)
 Copying SCF densities to generalized density rwf, IOpCl= 0 IROHF=0.

 **********************************************************************

            Population analysis using the SCF Density.

 **********************************************************************

 Alpha  occ. eigenvalues -- -256.35264 -77.18481 -77.17640 -30.12699 -25.97556
 Alpha  occ. eigenvalues --  -25.95695 -25.95608 -10.25329 -10.25004 -10.24800
 Alpha  occ. eigenvalues --  -10.24654 -10.24605 -10.24411 -10.24390 -10.24332
 Alpha  occ. eigenvalues --  -10.24259 -10.24245 -10.24214 -10.24144 -10.24135
 Alpha  occ. eigenvalues --  -10.24131 -10.24088 -10.23954 -10.23849 -10.23636
 Alpha  occ. eigenvalues --  -10.23436 -10.23196 -10.23164 -10.22785 -10.22722
 Alpha  occ. eigenvalues --  -10.22678 -10.22637 -10.22483 -10.22301 -10.21939
 Alpha  occ. eigenvalues --  -10.21631 -10.21471 -10.21406 -10.21262 -10.20736
 Alpha  occ. eigenvalues --  -10.20576  -6.59409  -6.58526  -4.73472  -4.73452
 Alpha  occ. eigenvalues --   -4.72922  -4.72600  -4.72538  -4.72040  -3.45831
 Alpha  occ. eigenvalues --   -2.24778  -2.20136  -2.19974  -0.92129  -0.90378
 Alpha  occ. eigenvalues --   -0.87870  -0.87033  -0.83407  -0.81689  -0.81340
 Alpha  occ. eigenvalues --   -0.78919  -0.78381  -0.76877  -0.75193  -0.73716
 Alpha  occ. eigenvalues --   -0.73206  -0.73149  -0.71811  -0.69986  -0.69735
 Alpha  occ. eigenvalues --   -0.69495  -0.69400  -0.68733  -0.68624  -0.66467
 Alpha  occ. eigenvalues --   -0.63805  -0.62375  -0.61535  -0.60464  -0.59047
 Alpha  occ. eigenvalues --   -0.56627  -0.56290  -0.55969  -0.55627  -0.55444
 Alpha  occ. eigenvalues --   -0.55056  -0.54064  -0.52657  -0.51431  -0.50076
 Alpha  occ. eigenvalues --   -0.49601  -0.48164  -0.47731  -0.47365  -0.46636
 Alpha  occ. eigenvalues --   -0.45697  -0.45325  -0.45163  -0.44843  -0.44637
 Alpha  occ. eigenvalues --   -0.44251  -0.43864  -0.43417  -0.43135  -0.42669
 Alpha  occ. eigenvalues --   -0.42641  -0.42363  -0.42140  -0.41867  -0.41742
 Alpha  occ. eigenvalues --   -0.41389  -0.41084  -0.40428  -0.40035  -0.39753
 Alpha  occ. eigenvalues --   -0.39714  -0.39553  -0.39350  -0.39105  -0.38783
 Alpha  occ. eigenvalues --   -0.38454  -0.38184  -0.37859  -0.37337  -0.37260
 Alpha  occ. eigenvalues --   -0.36906  -0.36693  -0.36386  -0.36246  -0.35356
 Alpha  occ. eigenvalues --   -0.35008  -0.34933  -0.34262  -0.33638  -0.33401
 Alpha  occ. eigenvalues --   -0.32996  -0.32471  -0.32372  -0.29460  -0.28484
 Alpha  occ. eigenvalues --   -0.27890  -0.27783  -0.26402  -0.26090  -0.25812
 Alpha  occ. eigenvalues --   -0.25428  -0.25129  -0.24525  -0.22931  -0.21877
 Alpha  occ. eigenvalues --   -0.21665  -0.18273
 Alpha virt. eigenvalues --   -0.02110  -0.00882  -0.00670  -0.00196   0.00205
 Alpha virt. eigenvalues --    0.00703   0.03338   0.04010   0.05893   0.06001
 Alpha virt. eigenvalues --    0.06531   0.06610   0.06728   0.07042   0.07402
 Alpha virt. eigenvalues --    0.08199   0.08481   0.08948   0.09161   0.09519
 Alpha virt. eigenvalues --    0.10053   0.10481   0.10512   0.11045   0.11333
 Alpha virt. eigenvalues --    0.12045   0.12134   0.12433   0.12634   0.12848
 Alpha virt. eigenvalues --    0.13117   0.13571   0.13852   0.14055   0.14427
 Alpha virt. eigenvalues --    0.14558   0.14798   0.15115   0.15515   0.15651
 Alpha virt. eigenvalues --    0.15820   0.16078   0.16260   0.16797   0.17139
 Alpha virt. eigenvalues --    0.17535   0.17678   0.18306   0.18624   0.18798
 Alpha virt. eigenvalues --    0.18902   0.19271   0.19613   0.19923   0.20271
 Alpha virt. eigenvalues --    0.20612   0.21032   0.21233   0.21640   0.22204
 Alpha virt. eigenvalues --    0.22690   0.22949   0.23233   0.23785   0.23837
 Alpha virt. eigenvalues --    0.24145   0.24719   0.25109   0.25505   0.25558
 Alpha virt. eigenvalues --    0.25918   0.26628   0.27525   0.27909   0.28332
 Alpha virt. eigenvalues --    0.28545   0.29156   0.30004   0.30816   0.30831
 Alpha virt. eigenvalues --    0.31227   0.31982   0.32331   0.32488   0.32824
 Alpha virt. eigenvalues --    0.33035   0.33558   0.34060   0.35986   0.36208
 Alpha virt. eigenvalues --    0.36471   0.37344   0.37437   0.38923   0.39362
 Alpha virt. eigenvalues --    0.40172   0.40769   0.40869   0.41732   0.42098
 Alpha virt. eigenvalues --    0.42311   0.42624   0.42983   0.43176   0.44052
 Alpha virt. eigenvalues --    0.44294   0.45023   0.45209   0.45518   0.45607
 Alpha virt. eigenvalues --    0.46737   0.46916   0.47251   0.47634   0.48343
 Alpha virt. eigenvalues --    0.48669   0.48847   0.49357   0.49508   0.49703
 Alpha virt. eigenvalues --    0.50243   0.50778   0.50960   0.51293   0.51953
 Alpha virt. eigenvalues --    0.52223   0.52528   0.53021   0.53416   0.54067
 Alpha virt. eigenvalues --    0.54738   0.55033   0.55521   0.55670   0.56352
 Alpha virt. eigenvalues --    0.56731   0.57281   0.58495   0.58945   0.59326
 Alpha virt. eigenvalues --    0.59743   0.60414   0.60530   0.61003   0.61901
 Alpha virt. eigenvalues --    0.62243   0.62586   0.62656   0.62924   0.63722
 Alpha virt. eigenvalues --    0.64110   0.64770   0.65144   0.65299   0.65483
 Alpha virt. eigenvalues --    0.65736   0.66341   0.66842   0.66995   0.67493
 Alpha virt. eigenvalues --    0.67678   0.67873   0.68430   0.68795   0.69175
 Alpha virt. eigenvalues --    0.69499   0.69791   0.69861   0.69964   0.70239
 Alpha virt. eigenvalues --    0.70607   0.70838   0.70916   0.71111   0.71299
 Alpha virt. eigenvalues --    0.71593   0.71621   0.72004   0.72207   0.72494
 Alpha virt. eigenvalues --    0.72641   0.72789   0.73220   0.73370   0.73600
 Alpha virt. eigenvalues --    0.73722   0.73967   0.74122   0.74683   0.74861
 Alpha virt. eigenvalues --    0.75203   0.75250   0.75364   0.75814   0.75977
 Alpha virt. eigenvalues --    0.76401   0.76746   0.76946   0.77204   0.77420
 Alpha virt. eigenvalues --    0.77638   0.77926   0.77977   0.78173   0.78891
 Alpha virt. eigenvalues --    0.78972   0.79277   0.79856   0.79943   0.80145
 Alpha virt. eigenvalues --    0.80463   0.80573   0.80955   0.81377   0.81559
 Alpha virt. eigenvalues --    0.82017   0.82441   0.82620   0.83010   0.83479
 Alpha virt. eigenvalues --    0.83932   0.84143   0.84573   0.85042   0.85188
 Alpha virt. eigenvalues --    0.85972   0.86275   0.86559   0.86867   0.87340
 Alpha virt. eigenvalues --    0.87527   0.88223   0.88707   0.89212   0.89544
 Alpha virt. eigenvalues --    0.90053   0.90182   0.90809   0.91277   0.92211
 Alpha virt. eigenvalues --    0.92794   0.92973   0.93758   0.94360   0.95327
 Alpha virt. eigenvalues --    0.95587   0.96628   0.97137   0.97798   0.98579
 Alpha virt. eigenvalues --    0.98963   0.99594   1.00366   1.00660   1.01745
 Alpha virt. eigenvalues --    1.02644   1.03453   1.04101   1.04924   1.05968
 Alpha virt. eigenvalues --    1.07289   1.07940   1.08155   1.09244   1.10369
 Alpha virt. eigenvalues --    1.10801   1.11836   1.12708   1.14052   1.14813
 Alpha virt. eigenvalues --    1.15418   1.16507   1.16987   1.17750   1.18789
 Alpha virt. eigenvalues --    1.19822   1.20844   1.21261   1.22153   1.22911
 Alpha virt. eigenvalues --    1.23831   1.24250   1.25679   1.25981   1.26450
 Alpha virt. eigenvalues --    1.26638   1.27784   1.28763   1.29523   1.29843
 Alpha virt. eigenvalues --    1.31232   1.31767   1.33181   1.33729   1.34621
 Alpha virt. eigenvalues --    1.35576   1.36946   1.37588   1.39811   1.39831
 Alpha virt. eigenvalues --    1.40591   1.41621   1.42456   1.43289   1.44044
 Alpha virt. eigenvalues --    1.46355   1.46682   1.47238   1.48784   1.49733
 Alpha virt. eigenvalues --    1.49795   1.50445   1.51185   1.51315   1.51642
 Alpha virt. eigenvalues --    1.56404   1.58544   1.60118   1.60637   1.61654
 Alpha virt. eigenvalues --    1.62609   1.64339   1.67364   1.69252   1.70813
 Alpha virt. eigenvalues --    1.73238   1.75058   1.75640   1.75869   1.76263
 Alpha virt. eigenvalues --    1.78322   1.79300   1.79601   1.80611   1.82223
 Alpha virt. eigenvalues --    1.83195   1.83493   1.84652   1.85263   1.85838
 Alpha virt. eigenvalues --    1.86444   1.87285   1.88868   1.89314   1.89541
 Alpha virt. eigenvalues --    1.90291   1.90735   1.91141   1.91412   1.92116
 Alpha virt. eigenvalues --    1.92723   1.92949   1.93529   1.93949   1.94291
 Alpha virt. eigenvalues --    1.94587   1.95160   1.95715   1.96461   1.97386
 Alpha virt. eigenvalues --    1.97560   1.98953   1.99076   1.99752   2.01016
 Alpha virt. eigenvalues --    2.01436   2.02479   2.03145   2.04040   2.04245
 Alpha virt. eigenvalues --    2.05203   2.05493   2.06573   2.07052   2.07857
 Alpha virt. eigenvalues --    2.08145   2.08352   2.08883   2.09522   2.10240
 Alpha virt. eigenvalues --    2.10648   2.11116   2.12725   2.13440   2.14925
 Alpha virt. eigenvalues --    2.15303   2.15782   2.16057   2.16950   2.17683
 Alpha virt. eigenvalues --    2.18258   2.18593   2.19390   2.20140   2.20746
 Alpha virt. eigenvalues --    2.21160   2.22034   2.22247   2.22732   2.23372
 Alpha virt. eigenvalues --    2.23770   2.24398   2.24701   2.24822   2.25040
 Alpha virt. eigenvalues --    2.25816   2.26386   2.27875   2.29206   2.29822
 Alpha virt. eigenvalues --    2.30012   2.31292   2.31830   2.32840   2.33373
 Alpha virt. eigenvalues --    2.34579   2.35033   2.35696   2.36665   2.41590
 Alpha virt. eigenvalues --    2.42044   2.42445   2.45063   2.46258   2.46585
 Alpha virt. eigenvalues --    2.48521   2.48663   2.48941   2.49026   2.49759
 Alpha virt. eigenvalues --    2.49886   2.50304   2.51056   2.51342   2.51679
 Alpha virt. eigenvalues --    2.52128   2.52512   2.52946   2.54585   2.58063
 Alpha virt. eigenvalues --    2.60403   2.61618   2.61886   2.65927   2.66113
 Alpha virt. eigenvalues --    2.66491   2.67829   2.68906   2.70562   2.71367
 Alpha virt. eigenvalues --    2.71767   2.72347   2.72540   2.73182   2.75211
 Alpha virt. eigenvalues --    2.75585   2.76330   2.77731   2.78877   2.78942
 Alpha virt. eigenvalues --    2.80036   2.80941   2.88432   2.88853   2.91799
 Alpha virt. eigenvalues --    2.93093   3.00922   3.04069   3.05102   3.06176
 Alpha virt. eigenvalues --    3.36687   3.37083
          Condensed to atoms (all electrons):
 Mulliken charges:
               1
     1  C   -0.083265
     2  C   -0.075959
     3  C   -0.077704
     4  C   -0.110783
     5  C   -0.121151
     6  H    0.119501
     7  H    0.118910
     8  H    0.118114
     9  H    0.114132
    10  H    0.121711
    11  Fe  -0.226692
    12  C   -0.054716
    13  C   -0.014486
    14  C   -0.125013
    15  C   -0.165954
    16  C   -0.027027
    17  H    0.097343
    18  H    0.120987
    19  H    0.109033
    20  C   -0.361774
    21  H    0.157922
    22  P    0.342444
    23  C   -0.328480
    24  H    0.173356
    25  H    0.139156
    26  H    0.152743
    27  P    0.334651
    28  C   -0.199475
    29  C   -0.080359
    30  C   -0.124849
    31  C   -0.081945
    32  C   -0.072768
    33  C   -0.081704
    34  H    0.094203
    35  H    0.080295
    36  H    0.078088
    37  H    0.086486
    38  C   -0.119050
    39  C   -0.089754
    40  C   -0.079836
    41  C   -0.139830
    42  C   -0.063198
    43  C   -0.138350
    44  H    0.090054
    45  H    0.089165
    46  H    0.124682
    47  H    0.077757
    48  C   -0.428735
    49  C   -0.321751
    50  H    0.122037
    51  H    0.195079
    52  H    0.110062
    53  C   -0.327735
    54  H    0.186421
    55  H    0.141763
    56  H    0.121793
    57  C   -0.276656
    58  H    0.134809
    59  H    0.137474
    60  H    0.118332
    61  C   -0.438990
    62  C   -0.280895
    63  H    0.133297
    64  H    0.138885
    65  H    0.111607
    66  C   -0.278714
    67  H    0.126773
    68  H    0.141383
    69  H    0.116498
    70  C   -0.318277
    71  H    0.199858
    72  H    0.152841
    73  H    0.114549
    74  C   -0.327824
    75  H    0.197092
    76  H    0.145951
    77  H    0.132711
    78  C   -0.330611
    79  H    0.175397
    80  H    0.144161
    81  H    0.134799
 Sum of Mulliken charges =  -0.00000
 Mulliken charges with hydrogens summed into heavy atoms:
               1
     1  C    0.036237
     2  C    0.042951
     3  C    0.040410
     4  C    0.003350
     5  C    0.000560
    11  Fe  -0.226692
    12  C    0.042627
    13  C   -0.014486
    14  C   -0.125013
    15  C   -0.044967
    16  C    0.082007
    20  C   -0.203852
    22  P    0.342444
    23  C    0.136776
    27  P    0.334651
    28  C   -0.199475
    29  C    0.013844
    30  C   -0.044554
    31  C   -0.081945
    32  C    0.005320
    33  C    0.004782
    38  C   -0.119050
    39  C    0.000300
    40  C    0.009329
    41  C   -0.015148
    42  C   -0.063198
    43  C   -0.060593
    48  C   -0.428735
    49  C    0.105428
    53  C    0.122242
    57  C    0.113960
    61  C   -0.438990
    62  C    0.102893
    66  C    0.105941
    70  C    0.148971
    74  C    0.147930
    78  C    0.123746
 Electronic spatial extent (au):  <R**2>=          18696.4453
 Charge=             -0.0000 electrons
 Dipole moment (field-independent basis, Debye):
    X=             -1.6838    Y=              0.5588    Z=              0.9067  Tot=              1.9924
 Quadrupole moment (field-independent basis, Debye-Ang):
   XX=           -246.7140   YY=           -239.5684   ZZ=           -237.2847
   XY=             -2.0685   XZ=             -2.4823   YZ=              1.4576
 Traceless Quadrupole moment (field-independent basis, Debye-Ang):
   XX=             -5.5249   YY=              1.6206   ZZ=              3.9043
   XY=             -2.0685   XZ=             -2.4823   YZ=              1.4576
 Octapole moment (field-independent basis, Debye-Ang**2):
  XXX=            193.1995  YYY=           -680.9474  ZZZ=           -169.2815  XYY=             50.7636
  XXY=           -215.9902  XXZ=             -7.0211  XZZ=             99.7977  YZZ=           -206.2241
  YYZ=            -48.9591  XYZ=            -13.0252
 Hexadecapole moment (field-independent basis, Debye-Ang**3):
 XXXX=          -9827.1876 YYYY=          -9736.2158 ZZZZ=          -5931.9556 XXXY=          -1416.6233
 XXXZ=           -550.2219 YYYX=          -1504.9658 YYYZ=            286.8957 ZZZX=           -347.1221
 ZZZY=            249.2097 XXYY=          -3098.1321 XXZZ=          -2641.1300 YYZZ=          -2531.5053
 XXYZ=             90.9419 YYXZ=           -176.1057 ZZXY=           -415.9044
 N-N= 5.619607272798D+03 E-N=-1.892150712587D+04  KE= 3.247209661133D+03
 No NMR shielding tensors so no spin-rotation constants.
 Leave Link  601 at Fri Sep 29 19:33:48 2023, MaxMem=  4026531840 cpu:               3.6 elap:               0.3
 (Enter /sw/arch/RHEL8/EB_production/2022/software/Gaussian/g16.c02/l607.exe)
 ******************************Gaussian NBO Version 3.1******************************
             N A T U R A L   A T O M I C   O R B I T A L   A N D
          N A T U R A L   B O N D   O R B I T A L   A N A L Y S I S
 ******************************Gaussian NBO Version 3.1******************************
       /RESON  / : Allow strongly delocalized NBO set

 Analyzing the SCF density

 Job title: Cisa                                                            

 Storage needed:   1188516 in NPA,   1565961 in NBO (4026497253 available)


 NATURAL POPULATIONS:  Natural atomic orbital occupancies 
                                                          
   NAO  Atom  No  lang   Type(AO)    Occupancy      Energy
 ----------------------------------------------------------
     1    C    1  S      Cor( 1S)     1.99868     -10.10543
     2    C    1  S      Val( 2S)     0.94914      -0.16493
     3    C    1  S      Ryd( 3S)     0.00295       0.82106
     4    C    1  px     Val( 2p)     1.05525      -0.09947
     5    C    1  px     Ryd( 3p)     0.00620       0.71855
     6    C    1  py     Val( 2p)     1.12553      -0.06642
     7    C    1  py     Ryd( 3p)     0.00538       0.84079
     8    C    1  pz     Val( 2p)     1.09607      -0.08704
     9    C    1  pz     Ryd( 3p)     0.00425       0.70717
    10    C    1  dxy    Ryd( 3d)     0.00102       2.11090
    11    C    1  dxz    Ryd( 3d)     0.00069       2.24697
    12    C    1  dyz    Ryd( 3d)     0.00085       2.12868
    13    C    1  dx2y2  Ryd( 3d)     0.00084       2.26069
    14    C    1  dz2    Ryd( 3d)     0.00085       2.06234
 
    15    C    2  S      Cor( 1S)     1.99865     -10.10662
    16    C    2  S      Val( 2S)     0.95058      -0.16815
    17    C    2  S      Ryd( 3S)     0.00254       0.82426
    18    C    2  px     Val( 2p)     1.05690      -0.10396
    19    C    2  px     Ryd( 3p)     0.00628       0.73135
    20    C    2  py     Val( 2p)     1.07140      -0.06296
    21    C    2  py     Ryd( 3p)     0.00594       0.69666
    22    C    2  pz     Val( 2p)     1.13446      -0.08914
    23    C    2  pz     Ryd( 3p)     0.00356       0.81016
    24    C    2  dxy    Ryd( 3d)     0.00099       2.11389
    25    C    2  dxz    Ryd( 3d)     0.00083       2.20572
    26    C    2  dyz    Ryd( 3d)     0.00094       2.11667
    27    C    2  dx2y2  Ryd( 3d)     0.00079       2.25041
    28    C    2  dz2    Ryd( 3d)     0.00074       2.10252
 
    29    C    3  S      Cor( 1S)     1.99866     -10.10712
    30    C    3  S      Val( 2S)     0.94955      -0.16796
    31    C    3  S      Ryd( 3S)     0.00265       0.82676
    32    C    3  px     Val( 2p)     1.04340      -0.09061
    33    C    3  px     Ryd( 3p)     0.00447       0.64678
    34    C    3  py     Val( 2p)     1.19487      -0.07706
    35    C    3  py     Ryd( 3p)     0.00570       1.01406
    36    C    3  pz     Val( 2p)     1.02897      -0.09134
    37    C    3  pz     Ryd( 3p)     0.00503       0.61823
    38    C    3  dxy    Ryd( 3d)     0.00080       2.22435
    39    C    3  dxz    Ryd( 3d)     0.00052       2.23707
    40    C    3  dyz    Ryd( 3d)     0.00080       2.23108
    41    C    3  dx2y2  Ryd( 3d)     0.00108       2.14153
    42    C    3  dz2    Ryd( 3d)     0.00110       1.98457
 
    43    C    4  S      Cor( 1S)     1.99870     -10.10583
    44    C    4  S      Val( 2S)     0.94713      -0.16495
    45    C    4  S      Ryd( 3S)     0.00316       0.83198
    46    C    4  px     Val( 2p)     1.15443      -0.09285
    47    C    4  px     Ryd( 3p)     0.00350       0.84939
    48    C    4  py     Val( 2p)     1.04723      -0.06163
    49    C    4  py     Ryd( 3p)     0.00558       0.66753
    50    C    4  pz     Val( 2p)     1.08854      -0.10455
    51    C    4  pz     Ryd( 3p)     0.00644       0.82034
    52    C    4  dxy    Ryd( 3d)     0.00092       2.14800
    53    C    4  dxz    Ryd( 3d)     0.00091       2.18156
    54    C    4  dyz    Ryd( 3d)     0.00098       2.15572
    55    C    4  dx2y2  Ryd( 3d)     0.00063       2.19803
    56    C    4  dz2    Ryd( 3d)     0.00077       2.14522
 
    57    C    5  S      Cor( 1S)     1.99873     -10.10470
    58    C    5  S      Val( 2S)     0.94782      -0.16331
    59    C    5  S      Ryd( 3S)     0.00335       0.84005
    60    C    5  px     Val( 2p)     1.06157      -0.08990
    61    C    5  px     Ryd( 3p)     0.00455       0.70789
    62    C    5  py     Val( 2p)     1.17754      -0.07136
    63    C    5  py     Ryd( 3p)     0.00510       0.98968
    64    C    5  pz     Val( 2p)     1.04112      -0.09446
    65    C    5  pz     Ryd( 3p)     0.00591       0.71506
    66    C    5  dxy    Ryd( 3d)     0.00079       2.17308
    67    C    5  dxz    Ryd( 3d)     0.00057       2.25126
    68    C    5  dyz    Ryd( 3d)     0.00093       2.17167
    69    C    5  dx2y2  Ryd( 3d)     0.00096       2.18702
    70    C    5  dz2    Ryd( 3d)     0.00101       2.04826
 
    71    H    6  S      Val( 1S)     0.75050       0.10596
    72    H    6  S      Ryd( 2S)     0.00118       0.36144
 
    73    H    7  S      Val( 1S)     0.75239       0.10319
    74    H    7  S      Ryd( 2S)     0.00118       0.35987
 
    75    H    8  S      Val( 1S)     0.75253       0.10241
    76    H    8  S      Ryd( 2S)     0.00123       0.37611
 
    77    H    9  S      Val( 1S)     0.75296       0.10242
    78    H    9  S      Ryd( 2S)     0.00132       0.38669
 
    79    H   10  S      Val( 1S)     0.74973       0.11007
    80    H   10  S      Ryd( 2S)     0.00180       0.43815
 
    81   Fe   11  S      Cor( 1S)     2.00000    -236.37341
    82   Fe   11  S      Cor( 2S)     1.99999     -48.50458
    83   Fe   11  S      Cor( 3S)     1.99682      -4.88654
    84   Fe   11  S      Val( 4S)     0.14205       0.18513
    85   Fe   11  S      Ryd( 5S)     0.00491       0.26649
    86   Fe   11  px     Cor( 2p)     1.99999     -25.76276
    87   Fe   11  px     Cor( 3p)     1.99824      -2.39006
    88   Fe   11  px     Val( 4p)     0.21318       0.38924
    89   Fe   11  py     Cor( 2p)     1.99999     -25.75423
    90   Fe   11  py     Cor( 3p)     1.99932      -2.37866
    91   Fe   11  py     Val( 4p)     0.21215       0.28210
    92   Fe   11  pz     Cor( 2p)     1.99999     -25.76481
    93   Fe   11  pz     Cor( 3p)     1.99841      -2.39442
    94   Fe   11  pz     Val( 4p)     0.22770       0.40554
    95   Fe   11  dxy    Val( 3d)     1.31588      -0.16370
    96   Fe   11  dxy    Ryd( 4d)     0.00191       1.38695
    97   Fe   11  dxz    Val( 3d)     1.90379      -0.24760
    98   Fe   11  dxz    Ryd( 4d)     0.00292       1.25647
    99   Fe   11  dyz    Val( 3d)     1.28077      -0.16453
   100   Fe   11  dyz    Ryd( 4d)     0.00202       1.36245
   101   Fe   11  dx2y2  Val( 3d)     1.59185      -0.19155
   102   Fe   11  dx2y2  Ryd( 4d)     0.00171       1.33941
   103   Fe   11  dz2    Val( 3d)     1.07085      -0.15778
   104   Fe   11  dz2    Ryd( 4d)     0.00276       1.37721
 
   105    C   12  S      Cor( 1S)     1.99861     -10.09775
   106    C   12  S      Val( 2S)     0.92916      -0.14872
   107    C   12  S      Ryd( 3S)     0.00288       0.84780
   108    C   12  px     Val( 2p)     1.04888      -0.07980
   109    C   12  px     Ryd( 3p)     0.00425       0.68952
   110    C   12  py     Val( 2p)     1.19667      -0.08060
   111    C   12  py     Ryd( 3p)     0.00586       1.04250
   112    C   12  pz     Val( 2p)     1.02293      -0.09288
   113    C   12  pz     Ryd( 3p)     0.00465       0.67505
   114    C   12  dxy    Ryd( 3d)     0.00086       2.29847
   115    C   12  dxz    Ryd( 3d)     0.00052       2.27620
   116    C   12  dyz    Ryd( 3d)     0.00078       2.23808
   117    C   12  dx2y2  Ryd( 3d)     0.00098       2.16369
   118    C   12  dz2    Ryd( 3d)     0.00106       2.01412
 
   119    C   13  S      Cor( 1S)     1.99859     -10.10417
   120    C   13  S      Val( 2S)     0.83044      -0.11411
   121    C   13  S      Ryd( 3S)     0.00542       0.96222
   122    C   13  px     Val( 2p)     1.03135      -0.10880
   123    C   13  px     Ryd( 3p)     0.00961       1.01969
   124    C   13  py     Val( 2p)     1.07953      -0.07970
   125    C   13  py     Ryd( 3p)     0.00746       0.97574
   126    C   13  pz     Val( 2p)     1.08312      -0.09692
   127    C   13  pz     Ryd( 3p)     0.00457       0.92210
   128    C   13  dxy    Ryd( 3d)     0.00085       2.21675
   129    C   13  dxz    Ryd( 3d)     0.00076       2.33444
   130    C   13  dyz    Ryd( 3d)     0.00107       2.18203
   131    C   13  dx2y2  Ryd( 3d)     0.00092       2.32120
   132    C   13  dz2    Ryd( 3d)     0.00090       2.16365
 
   133    C   14  S      Cor( 1S)     1.99866     -10.10120
   134    C   14  S      Val( 2S)     0.93597      -0.18586
   135    C   14  S      Ryd( 3S)     0.00367       0.94882
   136    C   14  px     Val( 2p)     1.12285      -0.14602
   137    C   14  px     Ryd( 3p)     0.00934       1.00304
   138    C   14  py     Val( 2p)     1.17621      -0.12817
   139    C   14  py     Ryd( 3p)     0.00975       1.00976
   140    C   14  pz     Val( 2p)     1.12173      -0.11637
   141    C   14  pz     Ryd( 3p)     0.00653       0.83527
   142    C   14  dxy    Ryd( 3d)     0.00113       2.15650
   143    C   14  dxz    Ryd( 3d)     0.00058       2.29739
   144    C   14  dyz    Ryd( 3d)     0.00068       2.10544
   145    C   14  dx2y2  Ryd( 3d)     0.00104       2.33569
   146    C   14  dz2    Ryd( 3d)     0.00090       2.09385
 
   147    C   15  S      Cor( 1S)     1.99867     -10.09643
   148    C   15  S      Val( 2S)     0.93149      -0.15249
   149    C   15  S      Ryd( 3S)     0.00309       0.89741
   150    C   15  px     Val( 2p)     1.07395      -0.08244
   151    C   15  px     Ryd( 3p)     0.00535       0.77451
   152    C   15  py     Val( 2p)     1.16605      -0.07458
   153    C   15  py     Ryd( 3p)     0.00638       0.96784
   154    C   15  pz     Val( 2p)     1.04318      -0.10387
   155    C   15  pz     Ryd( 3p)     0.00632       0.76423
   156    C   15  dxy    Ryd( 3d)     0.00083       2.24724
   157    C   15  dxz    Ryd( 3d)     0.00065       2.27642
   158    C   15  dyz    Ryd( 3d)     0.00099       2.14939
   159    C   15  dx2y2  Ryd( 3d)     0.00084       2.24279
   160    C   15  dz2    Ryd( 3d)     0.00085       2.08782
 
   161    C   16  S      Cor( 1S)     1.99863     -10.10110
   162    C   16  S      Val( 2S)     0.94025      -0.15723
   163    C   16  S      Ryd( 3S)     0.00235       0.85116
   164    C   16  px     Val( 2p)     1.16036      -0.08253
   165    C   16  px     Ryd( 3p)     0.00453       0.90291
   166    C   16  py     Val( 2p)     1.04932      -0.05604
   167    C   16  py     Ryd( 3p)     0.00605       0.63461
   168    C   16  pz     Val( 2p)     1.04500      -0.10710
   169    C   16  pz     Ryd( 3p)     0.00607       0.73563
   170    C   16  dxy    Ryd( 3d)     0.00092       2.18552
   171    C   16  dxz    Ryd( 3d)     0.00086       2.20237
   172    C   16  dyz    Ryd( 3d)     0.00103       2.10832
   173    C   16  dx2y2  Ryd( 3d)     0.00069       2.22939
   174    C   16  dz2    Ryd( 3d)     0.00078       2.14983
 
   175    H   17  S      Val( 1S)     0.75027       0.10129
   176    H   17  S      Ryd( 2S)     0.00130       0.40000
 
   177    H   18  S      Val( 1S)     0.75092       0.11283
   178    H   18  S      Ryd( 2S)     0.00170       0.47848
 
   179    H   19  S      Val( 1S)     0.75164       0.10353
   180    H   19  S      Ryd( 2S)     0.00125       0.36193
 
   181    C   20  S      Cor( 1S)     1.99900     -10.11472
   182    C   20  S      Val( 2S)     0.98282      -0.22348
   183    C   20  S      Ryd( 3S)     0.00472       1.03957
   184    C   20  px     Val( 2p)     1.17414      -0.14981
   185    C   20  px     Ryd( 3p)     0.00383       0.77409
   186    C   20  py     Val( 2p)     1.14966      -0.10500
   187    C   20  py     Ryd( 3p)     0.00511       0.85292
   188    C   20  pz     Val( 2p)     1.19523      -0.10539
   189    C   20  pz     Ryd( 3p)     0.00361       0.80909
   190    C   20  dxy    Ryd( 3d)     0.00078       2.07509
   191    C   20  dxz    Ryd( 3d)     0.00075       2.19499
   192    C   20  dyz    Ryd( 3d)     0.00115       2.23106
   193    C   20  dx2y2  Ryd( 3d)     0.00107       2.19588
   194    C   20  dz2    Ryd( 3d)     0.00064       2.01101
 
   195    H   21  S      Val( 1S)     0.72144       0.10459
   196    H   21  S      Ryd( 2S)     0.00328       0.63611
 
   197    P   22  S      Cor( 1S)     1.99999     -76.24193
   198    P   22  S      Cor( 2S)     1.99875      -7.29714
   199    P   22  S      Val( 3S)     1.32894      -0.40498
   200    P   22  S      Ryd( 4S)     0.00575       0.73698
   201    P   22  px     Cor( 2p)     1.99983      -4.71482
   202    P   22  px     Val( 3p)     1.24733      -0.08446
   203    P   22  px     Ryd( 4p)     0.00560       0.85601
   204    P   22  py     Cor( 2p)     1.99977      -4.71678
   205    P   22  py     Val( 3p)     0.77511      -0.03929
   206    P   22  py     Ryd( 4p)     0.00435       0.93366
   207    P   22  pz     Cor( 2p)     1.99976      -4.71625
   208    P   22  pz     Val( 3p)     0.80430      -0.03645
   209    P   22  pz     Ryd( 4p)     0.00347       0.88137
   210    P   22  dxy    Ryd( 3d)     0.00550       1.24020
   211    P   22  dxz    Ryd( 3d)     0.00268       0.98557
   212    P   22  dyz    Ryd( 3d)     0.00536       1.03451
   213    P   22  dx2y2  Ryd( 3d)     0.00214       0.98855
   214    P   22  dz2    Ryd( 3d)     0.00542       1.05311
 
   215    C   23  S      Cor( 1S)     1.99926     -10.09930
   216    C   23  S      Val( 2S)     1.06147      -0.22231
   217    C   23  S      Ryd( 3S)     0.00084       0.92880
   218    C   23  px     Val( 2p)     1.22881      -0.08073
   219    C   23  px     Ryd( 3p)     0.00361       0.75246
   220    C   23  py     Val( 2p)     1.10679      -0.06853
   221    C   23  py     Ryd( 3p)     0.00247       0.60600
   222    C   23  pz     Val( 2p)     1.21203      -0.08177
   223    C   23  pz     Ryd( 3p)     0.00270       0.71537
   224    C   23  dxy    Ryd( 3d)     0.00044       2.01979
   225    C   23  dxz    Ryd( 3d)     0.00085       2.17334
   226    C   23  dyz    Ryd( 3d)     0.00079       2.14323
   227    C   23  dx2y2  Ryd( 3d)     0.00063       2.11916
   228    C   23  dz2    Ryd( 3d)     0.00017       1.90619
 
   229    H   24  S      Val( 1S)     0.76333       0.09934
   230    H   24  S      Ryd( 2S)     0.00176       0.48796
 
   231    H   25  S      Val( 1S)     0.78000       0.08627
   232    H   25  S      Ryd( 2S)     0.00263       0.50932
 
   233    H   26  S      Val( 1S)     0.79125       0.07827
   234    H   26  S      Ryd( 2S)     0.00136       0.47970
 
   235    P   27  S      Cor( 1S)     1.99999     -76.28941
   236    P   27  S      Cor( 2S)     1.99877      -7.27444
   237    P   27  S      Val( 3S)     1.30705      -0.39702
   238    P   27  S      Ryd( 4S)     0.00436       0.78876
   239    P   27  px     Cor( 2p)     1.99978      -4.72573
   240    P   27  px     Val( 3p)     0.76324      -0.04131
   241    P   27  px     Ryd( 4p)     0.00392       0.82047
   242    P   27  py     Cor( 2p)     1.99985      -4.72318
   243    P   27  py     Val( 3p)     1.36790      -0.09993
   244    P   27  py     Ryd( 4p)     0.00547       0.89207
   245    P   27  pz     Cor( 2p)     1.99978      -4.72586
   246    P   27  pz     Val( 3p)     0.70184      -0.03019
   247    P   27  pz     Ryd( 4p)     0.00365       0.84074
   248    P   27  dxy    Ryd( 3d)     0.00374       1.07364
   249    P   27  dxz    Ryd( 3d)     0.00449       1.08713
   250    P   27  dyz    Ryd( 3d)     0.00489       1.12642
   251    P   27  dx2y2  Ryd( 3d)     0.00516       0.98374
   252    P   27  dz2    Ryd( 3d)     0.00431       1.14048
 
   253    C   28  S      Cor( 1S)     1.99883     -10.10341
   254    C   28  S      Val( 2S)     0.93032      -0.16316
   255    C   28  S      Ryd( 3S)     0.00450       0.77966
   256    C   28  px     Val( 2p)     1.08968      -0.09459
   257    C   28  px     Ryd( 3p)     0.00305       0.83172
   258    C   28  py     Val( 2p)     1.10241      -0.09849
   259    C   28  py     Ryd( 3p)     0.00448       0.84969
   260    C   28  pz     Val( 2p)     1.19837      -0.13307
   261    C   28  pz     Ryd( 3p)     0.01014       1.08996
   262    C   28  dxy    Ryd( 3d)     0.00050       2.30063
   263    C   28  dxz    Ryd( 3d)     0.00056       2.17699
   264    C   28  dyz    Ryd( 3d)     0.00096       2.14486
   265    C   28  dx2y2  Ryd( 3d)     0.00063       1.98528
   266    C   28  dz2    Ryd( 3d)     0.00096       2.19628
 
   267    C   29  S      Cor( 1S)     1.99894     -10.10210
   268    C   29  S      Val( 2S)     0.94028      -0.13441
   269    C   29  S      Ryd( 3S)     0.00118       0.58960
   270    C   29  px     Val( 2p)     1.02439      -0.07142
   271    C   29  px     Ryd( 3p)     0.00239       0.61408
   272    C   29  py     Val( 2p)     1.05877      -0.06373
   273    C   29  py     Ryd( 3p)     0.00330       0.69088
   274    C   29  pz     Val( 2p)     1.16550      -0.05641
   275    C   29  pz     Ryd( 3p)     0.00582       0.97837
   276    C   29  dxy    Ryd( 3d)     0.00049       2.26957
   277    C   29  dxz    Ryd( 3d)     0.00052       2.10473
   278    C   29  dyz    Ryd( 3d)     0.00072       2.13144
   279    C   29  dx2y2  Ryd( 3d)     0.00066       1.97417
   280    C   29  dz2    Ryd( 3d)     0.00075       2.16493
 
   281    C   30  S      Cor( 1S)     1.99887     -10.09454
   282    C   30  S      Val( 2S)     0.92817      -0.12408
   283    C   30  S      Ryd( 3S)     0.00162       0.59695
   284    C   30  px     Val( 2p)     1.07885      -0.07914
   285    C   30  px     Ryd( 3p)     0.00348       0.77769
   286    C   30  py     Val( 2p)     1.06573      -0.06524
   287    C   30  py     Ryd( 3p)     0.00283       0.72194
   288    C   30  pz     Val( 2p)     1.12895      -0.04873
   289    C   30  pz     Ryd( 3p)     0.00505       0.86046
   290    C   30  dxy    Ryd( 3d)     0.00053       2.22820
   291    C   30  dxz    Ryd( 3d)     0.00071       2.09625
   292    C   30  dyz    Ryd( 3d)     0.00061       2.21231
   293    C   30  dx2y2  Ryd( 3d)     0.00053       1.93747
   294    C   30  dz2    Ryd( 3d)     0.00061       2.24159
 
   295    C   31  S      Cor( 1S)     1.99880     -10.10856
   296    C   31  S      Val( 2S)     0.85091      -0.10164
   297    C   31  S      Ryd( 3S)     0.00162       0.70288
   298    C   31  px     Val( 2p)     1.03090      -0.07886
   299    C   31  px     Ryd( 3p)     0.00398       0.89635
   300    C   31  py     Val( 2p)     1.03985      -0.07727
   301    C   31  py     Ryd( 3p)     0.00539       0.97120
   302    C   31  pz     Val( 2p)     1.09155      -0.05699
   303    C   31  pz     Ryd( 3p)     0.00372       0.85282
   304    C   31  dxy    Ryd( 3d)     0.00059       2.25166
   305    C   31  dxz    Ryd( 3d)     0.00071       2.20261
   306    C   31  dyz    Ryd( 3d)     0.00078       2.24867
   307    C   31  dx2y2  Ryd( 3d)     0.00076       1.96328
   308    C   31  dz2    Ryd( 3d)     0.00071       2.31337
 
   309    C   32  S      Cor( 1S)     1.99890     -10.09416
   310    C   32  S      Val( 2S)     0.92150      -0.12075
   311    C   32  S      Ryd( 3S)     0.00241       0.67754
   312    C   32  px     Val( 2p)     1.06096      -0.07831
   313    C   32  px     Ryd( 3p)     0.00401       0.83913
   314    C   32  py     Val( 2p)     1.05212      -0.06166
   315    C   32  py     Ryd( 3p)     0.00375       0.78826
   316    C   32  pz     Val( 2p)     1.13826      -0.05278
   317    C   32  pz     Ryd( 3p)     0.00625       0.93832
   318    C   32  dxy    Ryd( 3d)     0.00054       2.25821
[...]
   382. RY*(   4) C  40                  0.00079     0.69618   
   383. RY*(   5) C  40                  0.00074     1.48547   
   384. RY*(   6) C  40                  0.00015     2.35253   
   385. RY*(   7) C  40                  0.00005     2.16830   
   386. RY*(   8) C  40                  0.00000     1.76024   
   387. RY*(   9) C  40                  0.00001     2.09852   
   388. RY*(   1) C  41                  0.00706     1.19160   
   389. RY*(   2) C  41                  0.00323     0.81322   
   390. RY*(   3) C  41                  0.00149     0.79735   
   391. RY*(   4) C  41                  0.00108     0.79089   
   392. RY*(   5) C  41                  0.00060     1.68006   
   393. RY*(   6) C  41                  0.00016     2.32311   
   394. RY*(   7) C  41                  0.00005     2.33305   
   395. RY*(   8) C  41                  0.00002     2.12943   
   396. RY*(   9) C  41                  0.00003     1.81161   
   397. RY*(   1) C  42                  0.00791     1.18040   
   398. RY*(   2) C  42                  0.00303     0.97990   
   399. RY*(   3) C  42                  0.00219     0.85150   
   400. RY*(   4) C  42                  0.00090     0.82245   
   401. RY*(   5) C  42                  0.00066     1.92800   
   402. RY*(   6) C  42                  0.00036     2.22840   
   403. RY*(   7) C  42                  0.00029     1.75791   
   404. RY*(   8) C  42                  0.00012     2.29405   
   405. RY*(   9) C  42                  0.00004     2.22862   
   406. RY*(   1) C  43                  0.00632     1.17324   
   407. RY*(   2) C  43                  0.00262     0.76010   
   408. RY*(   3) C  43                  0.00106     0.67156   
   409. RY*(   4) C  43                  0.00093     1.15227   
   410. RY*(   5) C  43                  0.00068     1.40729   
   411. RY*(   6) C  43                  0.00015     2.31736   
   412. RY*(   7) C  43                  0.00004     2.25840   
   413. RY*(   8) C  43                  0.00002     1.80896   
   414. RY*(   9) C  43                  0.00001     2.10724   
   415. RY*(   1) H  44                  0.00171     0.33486   
   416. RY*(   1) H  45                  0.00174     0.33787   
   417. RY*(   1) H  46                  0.00303     0.46951   
   418. RY*(   1) H  47                  0.00184     0.35131   
   419. RY*(   1) C  48                  0.00367     0.85538   
   420. RY*(   2) C  48                  0.00341     0.96761   
   421. RY*(   3) C  48                  0.00324     0.99193   
   422. RY*(   4) C  48                  0.00103     0.99038   
   423. RY*(   5) C  48                  0.00063     1.96147   
   424. RY*(   6) C  48                  0.00058     1.92163   
   425. RY*(   7) C  48                  0.00058     2.18196   
   426. RY*(   8) C  48                  0.00039     2.18236   
   427. RY*(   9) C  48                  0.00036     2.01146   
   428. RY*(   1) C  49                  0.00446     0.87533   
   429. RY*(   2) C  49                  0.00420     0.87450   
   430. RY*(   3) C  49                  0.00228     0.82143   
   431. RY*(   4) C  49                  0.00033     0.74655   
   432. RY*(   5) C  49                  0.00008     1.96847   
   433. RY*(   6) C  49                  0.00002     1.98467   
   434. RY*(   7) C  49                  0.00002     2.03965   
   435. RY*(   8) C  49                  0.00002     2.06376   
   436. RY*(   9) C  49                  0.00001     2.05783   
   437. RY*(   1) H  50                  0.00142     0.47064   
   438. RY*(   1) H  51                  0.00479     0.70050   
   439. RY*(   1) H  52                  0.00250     0.41507   
   440. RY*(   1) C  53                  0.00495     0.86061   
   441. RY*(   2) C  53                  0.00401     0.84042   
   442. RY*(   3) C  53                  0.00191     0.84829   
   443. RY*(   4) C  53                  0.00035     0.78670   
   444. RY*(   5) C  53                  0.00009     2.02467   
   445. RY*(   6) C  53                  0.00002     1.92281   
   446. RY*(   7) C  53                  0.00002     1.98072   
   447. RY*(   8) C  53                  0.00001     2.00692   
   448. RY*(   9) C  53                  0.00002     2.07698   
   449. RY*(   1) H  54                  0.00437     0.70589   
   450. RY*(   1) H  55                  0.00175     0.45530   
   451. RY*(   1) H  56                  0.00209     0.40617   
   452. RY*(   1) C  57                  0.00478     0.83373   
   453. RY*(   2) C  57                  0.00429     0.81446   
   454. RY*(   3) C  57                  0.00155     0.81356   
   455. RY*(   4) C  57                  0.00020     0.72838   
   456. RY*(   5) C  57                  0.00004     2.05399   
   457. RY*(   6) C  57                  0.00001     1.92548   
   458. RY*(   7) C  57                  0.00002     2.01422   
   459. RY*(   8) C  57                  0.00001     1.97449   
   460. RY*(   9) C  57                  0.00001     2.03148   
   461. RY*(   1) H  58                  0.00192     0.40333   
   462. RY*(   1) H  59                  0.00137     0.49336   
   463. RY*(   1) H  60                  0.00227     0.39066   
   464. RY*(   1) C  61                  0.00370     0.84456   
   465. RY*(   2) C  61                  0.00337     1.08003   
   466. RY*(   3) C  61                  0.00301     0.84328   
   467. RY*(   4) C  61                  0.00097     0.97503   
   468. RY*(   5) C  61                  0.00064     2.04400   
   469. RY*(   6) C  61                  0.00064     1.98329   
   470. RY*(   7) C  61                  0.00058     2.11808   
   471. RY*(   8) C  61                  0.00037     2.14732   
   472. RY*(   9) C  61                  0.00033     2.03262   
   473. RY*(   1) C  62                  0.00449     0.87375   
   474. RY*(   2) C  62                  0.00422     0.85510   
   475. RY*(   3) C  62                  0.00215     0.83866   
   476. RY*(   4) C  62                  0.00026     0.77714   
   477. RY*(   5) C  62                  0.00007     1.93410   
   478. RY*(   6) C  62                  0.00002     1.96237   
   479. RY*(   7) C  62                  0.00001     2.01000   
   480. RY*(   8) C  62                  0.00002     1.96350   
   481. RY*(   9) C  62                  0.00002     2.12210   
   482. RY*(   1) H  63                  0.00143     0.51494   
   483. RY*(   1) H  64                  0.00147     0.49704   
   484. RY*(   1) H  65                  0.00254     0.39741   
   485. RY*(   1) C  66                  0.00480     0.79361   
   486. RY*(   2) C  66                  0.00413     0.85205   
   487. RY*(   3) C  66                  0.00152     0.85252   
   488. RY*(   4) C  66                  0.00022     0.76283   
   489. RY*(   5) C  66                  0.00006     2.03147   
   490. RY*(   6) C  66                  0.00001     1.89258   
   491. RY*(   7) C  66                  0.00001     2.00889   
   492. RY*(   8) C  66                  0.00002     1.96594   
   493. RY*(   9) C  66                  0.00002     2.08569   
   494. RY*(   1) H  67                  0.00144     0.46035   
   495. RY*(   1) H  68                  0.00164     0.50917   
   496. RY*(   1) H  69                  0.00208     0.39926   
   497. RY*(   1) C  70                  0.00463     0.89275   
   498. RY*(   2) C  70                  0.00426     0.85968   
   499. RY*(   3) C  70                  0.00209     0.92456   
   500. RY*(   4) C  70                  0.00035     0.75947   
   501. RY*(   5) C  70                  0.00006     1.98605   
   502. RY*(   6) C  70                  0.00003     2.12108   
   503. RY*(   7) C  70                  0.00002     1.92975   
   504. RY*(   8) C  70                  0.00002     2.07613   
   505. RY*(   9) C  70                  0.00001     2.03963   
   506. RY*(   1) H  71                  0.00578     0.79009   
   507. RY*(   1) H  72                  0.00186     0.50096   
   508. RY*(   1) H  73                  0.00208     0.41041   
   509. RY*(   1) C  74                  0.00366     0.74718   
   510. RY*(   2) C  74                  0.00120     1.07698   
   511. RY*(   3) C  74                  0.00076     0.72416   
   512. RY*(   4) C  74                  0.00010     1.08121   
   513. RY*(   5) C  74                  0.00008     1.48956   
   514. RY*(   6) C  74                  0.00002     2.08778   
   515. RY*(   7) C  74                  0.00003     1.94964   
   516. RY*(   8) C  74                  0.00001     1.93874   
   517. RY*(   9) C  74                  0.00002     2.05420   
   518. RY*(   1) H  75                  0.00145     0.58614   
   519. RY*(   1) H  76                  0.00155     0.38144   
   520. RY*(   1) H  77                  0.00146     0.40544   
   521. RY*(   1) C  78                  0.00407     0.83807   
   522. RY*(   2) C  78                  0.00136     0.98471   
   523. RY*(   3) C  78                  0.00113     0.86364   
   524. RY*(   4) C  78                  0.00021     1.09547   
   525. RY*(   5) C  78                  0.00004     1.51920   
   526. RY*(   6) C  78                  0.00002     1.95296   
   527. RY*(   7) C  78                  0.00002     2.02169   
   528. RY*(   8) C  78                  0.00002     2.05750   
   529. RY*(   9) C  78                  0.00001     1.85854   
   530. RY*(   1) H  79                  0.00198     0.51501   
   531. RY*(   1) H  80                  0.00194     0.46482   
   532. RY*(   1) H  81                  0.00149     0.37579   
   545. BD*(   1) C  12 - C  13          0.02535     0.53975   
   546. BD*(   1) C  12 - C  16          0.02806     0.52413   
   547. BD*(   2) C  12 - C  16          0.47058     0.04573  550(v),538(r),156(v),546(g)
                                                    150(r),578(r),153(r),154(r)
                                                    216(g),253(g),251(g),217(g)
                                                    535(r),214(r),212(r),177(r)
   548. BD*(   1) C  12 - H  17          0.01736     0.48465   
   549. BD*(   1) C  13 - C  14          0.04845     0.50466   
   550. BD*(   2) C  13 - C  14          0.53180     0.02667  547(v),156(v),153(r),150(r)
                                                    549(g),559(v),151(r),561(v)
                                                    553(g),557(v),225(g),235(g)
                                                    568(r),560(v),578(r),538(r)
                                                    146(r),535(r),155(r),212(r)
                                                    211(r),213(r),154(r)
   551. BD*(   1) C  13 - C  20          0.03597     0.46435   
   552. BD*(   1) C  14 - C  15          0.03981     0.50765   
   553. BD*(   1) C  14 - P  22          0.03132     0.26114   
   554. BD*(   1) C  15 - C  16          0.03158     0.53586   
   555. BD*(   1) C  15 - H  18          0.01874     0.50070   
   556. BD*(   1) C  16 - H  19          0.01671     0.48846   
   557. BD*(   1) C  20 - H  21          0.02259     0.46626   
   558. BD*(   1) C  20 - C  23          0.02056     0.41028   
   559. BD*(   1) C  20 - P  27          0.04981     0.22152   
   560. BD*(   1) P  22 - C  48          0.05412     0.22154   
   561. BD*(   1) P  22 - C  61          0.04952     0.21175   
   562. BD*(   1) C  23 - H  24          0.00785     0.47882   
   563. BD*(   1) C  23 - H  25          0.01062     0.46711   
   564. BD*(   1) C  23 - H  26          0.01019     0.46300   
   565. BD*(   1) P  27 - C  28          0.03046     0.26189   
   566. BD*(   1) P  27 - C  38          0.04527     0.27331   
   567. BD*(   1) C  28 - C  31          0.03751     0.58968   
   568. BD*(   2) C  28 - C  31          0.37969     0.04352  571(v),578(v),566(v),620(v)
                                                    306(g),332(g),324(v),550(r)
                                                    559(v),341(v),619(v)
   569. BD*(   1) C  28 - C  32          0.02855     0.59438   
   570. BD*(   1) C  29 - C  30          0.01792     0.61433   
   571. BD*(   2) C  29 - C  30          0.32074     0.05074  578(v),568(v),315(g),324(g)
                                                    325(g)
   572. BD*(   1) C  29 - C  33          0.01865     0.60559   
   573. BD*(   1) C  29 - H  34          0.01494     0.48630   
   574. BD*(   1) C  30 - C  31          0.02788     0.59702   
   575. BD*(   1) C  30 - H  35          0.01513     0.48235   
   576. BD*(   1) C  31 - C  74          0.02000     0.45826   
   577. BD*(   1) C  32 - C  33          0.02225     0.61815   
   578. BD*(   2) C  32 - C  33          0.31224     0.05316  571(v),568(v),350(g),547(r)
                                                    341(g),343(g),316(v),582(r)
   579. BD*(   1) C  32 - H  36          0.01885     0.50876   
   580. BD*(   1) C  33 - H  37          0.01544     0.48673   
   581. BD*(   1) C  38 - C  41          0.02480     0.60151   
   582. BD*(   2) C  38 - C  41          0.37955     0.04845  585(v),592(v),390(g),559(v)
                                                    364(g),391(g),578(r),383(v)
   583. BD*(   1) C  38 - C  42          0.03499     0.58499   
   584. BD*(   1) C  39 - C  40          0.01861     0.61525   
   585. BD*(   2) C  39 - C  40          0.34438     0.05625  592(v),582(v),372(g),381(g)
                                                    382(g),410(v)
   586. BD*(   1) C  39 - C  43          0.01793     0.61532   
   587. BD*(   1) C  39 - H  44          0.01486     0.49300   
   588. BD*(   1) C  40 - C  41          0.02041     0.61995   
   589. BD*(   1) C  40 - H  45          0.01514     0.49413   
   590. BD*(   1) C  41 - H  46          0.01694     0.50555   
   591. BD*(   1) C  42 - C  43          0.02763     0.60559   
   592. BD*(   2) C  42 - C  43          0.34335     0.05742  585(v),582(v),409(g),623(v)
                                                    403(g),408(g)
   593. BD*(   1) C  42 - C  78          0.02008     0.45044   
   594. BD*(   1) C  43 - H  47          0.01521     0.48531   
   595. BD*(   1) C  48 - C  49          0.02927     0.41607   
   596. BD*(   1) C  48 - C  53          0.02294     0.40538   
   597. BD*(   1) C  48 - C  57          0.02305     0.41456   
   598. BD*(   1) C  49 - H  50          0.00817     0.47969   
   599. BD*(   1) C  49 - H  51          0.01458     0.51100   
   600. BD*(   1) C  49 - H  52          0.01364     0.45755   
   601. BD*(   1) C  53 - H  54          0.01102     0.49485   
   602. BD*(   1) C  53 - H  55          0.00792     0.47718   
   603. BD*(   1) C  53 - H  56          0.01247     0.46053   
   604. BD*(   1) C  57 - H  58          0.00820     0.47847   
   605. BD*(   1) C  57 - H  59          0.00793     0.47060   
   606. BD*(   1) C  57 - H  60          0.01085     0.45973   
   607. BD*(   1) C  61 - C  62          0.02929     0.41431   
   608. BD*(   1) C  61 - C  66          0.02215     0.41141   
   609. BD*(   1) C  61 - C  70          0.02105     0.41454   
   610. BD*(   1) C  62 - H  63          0.00881     0.47966   
   611. BD*(   1) C  62 - H  64          0.00880     0.47105   
   612. BD*(   1) C  62 - H  65          0.01346     0.45838   
   613. BD*(   1) C  66 - H  67          0.00752     0.47592   
   614. BD*(   1) C  66 - H  68          0.00814     0.48577   
   615. BD*(   1) C  66 - H  69          0.01103     0.46201   
   616. BD*(   1) C  70 - H  71          0.00989     0.51701   
   617. BD*(   1) C  70 - H  72          0.00780     0.49219   
   618. BD*(   1) C  70 - H  73          0.01086     0.46575   
   619. BD*(   1) C  74 - H  75          0.01023     0.47431   
   620. BD*(   1) C  74 - H  76          0.01078     0.46004   
   621. BD*(   1) C  74 - H  77          0.00689     0.46309   
   622. BD*(   1) C  78 - H  79          0.00900     0.46183   
   623. BD*(   1) C  78 - H  80          0.01151     0.45309   
   624. BD*(   1) C  78 - H  81          0.00653     0.46230   
       -------------------------------
              Total Lewis  238.01696  ( 97.9336%)
        Valence non-Lewis    4.52416  (  1.8615%)
        Rydberg non-Lewis    0.49807  (  0.2049%)
       -------------------------------
            Total unit  3  243.03919  (100.0000%)
           Charge unit  3   -0.03919
 Leave Link  607 at Fri Sep 29 19:33:51 2023, MaxMem=  4026531840 cpu:              32.0 elap:               3.1
 (Enter /sw/arch/RHEL8/EB_production/2022/software/Gaussian/g16.c02/l9999.exe)
 Unable to Open any file for archive entry.
 1\1\GINC-TCN544\SP\RPBE1PBE\def2SVPP\C34H44Fe1P2\ADARSH\29-Sep-2023\0\
 \#p pop=nbo pbe1pbe/def2svpp empiricaldispersion=gd3bj integral=grid=u
 ltrafinegrid scf=(xqc,maxconventionalcycles=90) nosymm\\Cisa\\0,1\C,0,
 -5.041,0.06576,-0.80151\C,0,-5.14755,1.46915,-0.58234\C,0,-4.2367,2.12
 41,-1.46014\C,0,-3.56095,1.12629,-2.21879\C,0,-4.06901,-0.14216,-1.817
 03\H,0,-5.59926,-0.71091,-0.27847\H,0,-5.7946,1.95718,0.14682\H,0,-4.0
 7487,3.20065,-1.51934\H,0,-2.80065,1.29939,-2.98163\H,0,-3.77338,-1.10
 679,-2.22451\Fe,0,-3.23753,0.86269,-0.20111\C,0,-2.31595,2.17835,1.046
 84\C,0,-1.34617,1.44346,0.30257\C,0,-1.49817,0.04375,0.62896\C,0,-2.62
 603,-0.0446,1.5196\C,0,-3.10147,1.26176,1.79452\H,0,-2.48064,3.25356,1
 .00446\H,0,-3.0453,-0.95688,1.9366\H,0,-3.95341,1.5133,2.42597\C,0,-0.
 36252,2.01473,-0.67091\H,0,-0.35331,1.34034,-1.54102\P,0,-0.21642,-1.2
 4843,0.39447\C,0,-0.73001,3.40604,-1.18434\H,0,0.0983,3.8738,-1.73652\
 H,0,-1.59506,3.32197,-1.86233\H,0,-1.01797,4.10351,-0.38488\P,0,1.3874
 2,1.75017,-0.03611\C,0,1.44023,2.43892,1.66731\C,0,1.3808,3.63269,4.21
 363\C,0,2.20952,2.54773,3.95617\C,0,2.26772,1.93677,2.69526\C,0,0.6235
 9,3.54928,1.9367\C,0,0.5848,4.14404,3.19116\H,0,1.36148,4.08244,5.2104
 \H,0,2.8425,2.15219,4.75649\H,0,0.0116,3.97256,1.14304\H,0,-0.06495,5.
 00565,3.36679\C,0,2.4116,2.92407,-1.00569\C,0,4.07616,4.70419,-2.39413
 \C,0,4.09212,4.68574,-1.00282\C,0,3.26177,3.80184,-0.31845\C,0,2.40195
 ,2.92619,-2.42261\C,0,3.24052,3.83015,-3.0853\H,0,4.7184,5.39575,-2.94
 666\H,0,4.74607,5.3611,-0.44443\H,0,3.26882,3.80207,0.77448\H,0,3.2385
 5,3.84167,-4.1799\C,0,-1.03373,-2.527,-0.73642\C,0,-2.47896,-2.84452,-
 0.34656\H,0,-2.54402,-3.44018,0.57466\H,0,-3.07708,-1.93081,-0.22336\H
 ,0,-2.93875,-3.44435,-1.15384\C,0,-1.02711,-1.84722,-2.11187\H,0,-1.57
 065,-0.88964,-2.07194\H,0,-0.00669,-1.63223,-2.46553\H,0,-1.52527,-2.4
 9623,-2.8554\C,0,-0.24296,-3.83548,-0.77389\H,0,0.82105,-3.69704,-1.00
 659\H,0,-0.31475,-4.38559,0.17805\H,0,-0.67029,-4.48814,-1.55678\C,0,0
 .01174,-1.93071,2.17152\C,0,-1.06959,-2.89971,2.65373\H,0,-2.08339,-2.
 47765,2.62341\H,0,-1.06784,-3.84733,2.09343\H,0,-0.85719,-3.1482,3.709
 71\C,0,1.35287,-2.66461,2.24996\H,0,1.37481,-3.55998,1.60791\H,0,2.195
 24,-2.00969,1.97508\H,0,1.51049,-3.00591,3.28901\C,0,0.06352,-0.72657,
 3.11733\H,0,0.73315,0.06449,2.75093\H,0,-0.92583,-0.27167,3.27239\H,0,
 0.44087,-1.06076,4.10071\C,0,3.2367,0.80823,2.51561\H,0,2.90095,0.0947
 5,1.74094\H,0,4.22686,1.19237,2.20835\H,0,3.37935,0.25727,3.45918\C,0,
 1.5444,2.00904,-3.25454\H,0,1.39914,1.02266,-2.7769\H,0,0.54562,2.4428
 2,-3.43966\H,0,2.0067,1.84107,-4.24091\\Version=ES64L-G16RevC.02\HF=-3
 265.1932279\RMSD=6.304e-09\Dipole=-0.6624503,0.2198614,0.3567202\Quadr
 upole=-4.10766,1.2049096,2.9027505,-1.5378588,-1.8455138,1.0836834\PG=
 C01 [X(C34H44Fe1P2)]\\@
 The archive entry for this job was punched.


 WAR ES EIN GOTT DER DIESE ZEICHEN SCHRIEB?
          - LUDWIG BOLTZMANN, QUOTING GOETHE, ABOUT MAXWELL'S EQUATIONS.
 Job cpu time:       0 days  1 hours  2 minutes 14.7 seconds.
 Elapsed time:       0 days  0 hours  2 minutes 10.2 seconds.
 File lengths (MBytes):  RWF=    432 Int=      0 D2E=      0 Chk=     28 Scr=     32
 Normal termination of Gaussian 16 at Fri Sep 29 19:33:52 2023.
